
                                 *****************
                                 * O   R   C   A *
                                 *****************

                                            #,                                       
                                            ###                                      
                                            ####                                     
                                            #####                                    
                                            ######                                   
                                           ########,                                 
                                     ,,################,,,,,                         
                               ,,#################################,,                 
                          ,,##########################################,,             
                       ,#########################################, ''#####,          
                    ,#############################################,,   '####,        
                  ,##################################################,,,,####,       
                ,###########''''           ''''###############################       
              ,#####''   ,,,,##########,,,,          '''####'''          '####       
            ,##' ,,,,###########################,,,                        '##       
           ' ,,###''''                  '''############,,,                           
         ,,##''                                '''############,,,,        ,,,,,,###''
      ,#''                                            '''#######################'''  
     '                                                          ''''####''''         
             ,#######,   #######,   ,#######,      ##                                
            ,#'     '#,  ##    ##  ,#'     '#,    #''#        ######   ,####,        
            ##       ##  ##   ,#'  ##            #'  '#       #        #'  '#        
            ##       ##  #######   ##           ,######,      #####,   #    #        
            '#,     ,#'  ##    ##  '#,     ,#' ,#      #,         ##   #,  ,#        
             '#######'   ##     ##  '#######'  #'      '#     #####' # '####'        



                  #######################################################
                  #                        -***-                        #
                  #          Department of theory and spectroscopy      #
                  #    Directorship and core code : Frank Neese         #
                  #        Max Planck Institute fuer Kohlenforschung    #
                  #                Kaiser Wilhelm Platz 1               #
                  #                 D-45470 Muelheim/Ruhr               #
                  #                      Germany                        #
                  #                                                     #
                  #                  All rights reserved                #
                  #                        -***-                        #
                  #######################################################


                         Program Version 5.0.3 -  RELEASE  -


 With contributions from (in alphabetic order):
   Daniel Aravena         : Magnetic Suceptibility
   Michael Atanasov       : Ab Initio Ligand Field Theory (pilot matlab implementation)
   Alexander A. Auer      : GIAO ZORA, VPT2 properties, NMR spectrum
   Ute Becker             : Parallelization
   Giovanni Bistoni       : ED, misc. LED, open-shell LED, HFLD
   Martin Brehm           : Molecular dynamics
   Dmytro Bykov           : SCF Hessian
   Vijay G. Chilkuri      : MRCI spin determinant printing, contributions to CSF-ICE
   Dipayan Datta          : RHF DLPNO-CCSD density
   Achintya Kumar Dutta   : EOM-CC, STEOM-CC
   Dmitry Ganyushin       : Spin-Orbit,Spin-Spin,Magnetic field MRCI
   Miquel Garcia          : C-PCM and meta-GGA Hessian, CC/C-PCM, Gaussian charge scheme
   Yang Guo               : DLPNO-NEVPT2, F12-NEVPT2, CIM, IAO-localization
   Andreas Hansen         : Spin unrestricted coupled pair/coupled cluster methods
   Benjamin Helmich-Paris : MC-RPA, TRAH-SCF, COSX integrals
   Lee Huntington         : MR-EOM, pCC
   Robert Izsak           : Overlap fitted RIJCOSX, COSX-SCS-MP3, EOM
   Marcus Kettner         : VPT2
   Christian Kollmar      : KDIIS, OOCD, Brueckner-CCSD(T), CCSD density, CASPT2, CASPT2-K
   Simone Kossmann        : Meta GGA functionals, TD-DFT gradient, OOMP2, MP2 Hessian
   Martin Krupicka        : Initial AUTO-CI
   Lucas Lang             : DCDCAS
   Marvin Lechner         : AUTO-CI (C++ implementation), FIC-MRCC
   Dagmar Lenk            : GEPOL surface, SMD
   Dimitrios Liakos       : Extrapolation schemes; Compound Job, initial MDCI parallelization
   Dimitrios Manganas     : Further ROCIS development; embedding schemes
   Dimitrios Pantazis     : SARC Basis sets
   Anastasios Papadopoulos: AUTO-CI, single reference methods and gradients
   Taras Petrenko         : DFT Hessian,TD-DFT gradient, ASA, ECA, R-Raman, ABS, FL, XAS/XES, NRVS
   Peter Pinski           : DLPNO-MP2, DLPNO-MP2 Gradient
   Christoph Reimann      : Effective Core Potentials
   Marius Retegan         : Local ZFS, SOC
   Christoph Riplinger    : Optimizer, TS searches, QM/MM, DLPNO-CCSD(T), (RO)-DLPNO pert. Triples
   Tobias Risthaus        : Range-separated hybrids, TD-DFT gradient, RPA, STAB
   Michael Roemelt        : Original ROCIS implementation
   Masaaki Saitow         : Open-shell DLPNO-CCSD energy and density
   Barbara Sandhoefer     : DKH picture change effects
   Avijit Sen             : IP-ROCIS
   Kantharuban Sivalingam : CASSCF convergence, NEVPT2, FIC-MRCI
   Bernardo de Souza      : ESD, SOC TD-DFT
   Georgi Stoychev        : AutoAux, RI-MP2 NMR, DLPNO-MP2 response
   Willem Van den Heuvel  : Paramagnetic NMR
   Boris Wezisla          : Elementary symmetry handling
   Frank Wennmohs         : Technical directorship


 We gratefully acknowledge several colleagues who have allowed us to
 interface, adapt or use parts of their codes:
   Stefan Grimme, W. Hujo, H. Kruse, P. Pracht,  : VdW corrections, initial TS optimization,
                  C. Bannwarth, S. Ehlert          DFT functionals, gCP, sTDA/sTD-DF
   Ed Valeev, F. Pavosevic, A. Kumar             : LibInt (2-el integral package), F12 methods
   Garnet Chan, S. Sharma, J. Yang, R. Olivares  : DMRG
   Ulf Ekstrom                                   : XCFun DFT Library
   Mihaly Kallay                                 : mrcc  (arbitrary order and MRCC methods)
   Jiri Pittner, Ondrej Demel                    : Mk-CCSD
   Frank Weinhold                                : gennbo (NPA and NBO analysis)
   Christopher J. Cramer and Donald G. Truhlar   : smd solvation model
   Lars Goerigk                                  : TD-DFT with DH, B97 family of functionals
   V. Asgeirsson, H. Jonsson                     : NEB implementation
   FAccTs GmbH                                   : IRC, NEB, NEB-TS, DLPNO-Multilevel, CI-OPT
                                                   MM, QMMM, 2- and 3-layer-ONIOM, Crystal-QMMM,
                                                   LR-CPCM, SF, NACMEs, symmetry and pop. for TD-DFT,
                                                   nearIR, NL-DFT gradient (VV10), updates on ESD,
                                                   ML-optimized integration grids
   S Lehtola, MJT Oliveira, MAL Marques          : LibXC Library
   Liviu Ungur et al                             : ANISO software


 Your calculation uses the libint2 library for the computation of 2-el integrals
 For citations please refer to: http://libint.valeyev.net

 Your ORCA version has been built with support for libXC version: 5.1.0
 For citations please refer to: https://tddft.org/programs/libxc/

 This ORCA versions uses:
   CBLAS   interface :  Fast vector & matrix operations
   LAPACKE interface :  Fast linear algebra routines
   SCALAPACK package :  Parallel linear algebra routines
   Shared memory     :  Shared parallel matrices
   BLAS/LAPACK       :  OpenBLAS 0.3.15  USE64BITINT DYNAMIC_ARCH NO_AFFINITY Prescott SINGLE_THREADED
        Core in use  :  Prescott
   Copyright (c) 2011-2014, The OpenBLAS Project


XCFun DFT library Copyright 2009-2010 Ulf Ekstrom and contributors.
See http://admol.org/xcfun for more information.
This is free software; see the source code for copying conditions.
There is ABSOLUTELY NO WARRANTY; not even for MERCHANTABILITY or FITNESS FOR A PARTICULAR PURPOSE.
For details see the documentation.
Scientific users of this library should cite U. Ekstrom, L. Visscher, R. Bast, A. J. Thorvaldsen and K. Ruud;
J.Chem.Theor.Comp. 2010, DOI: 10.1021/ct100117s
XCFun Version 0.99 

================================================================================

----- Orbital basis set information -----
Your calculation utilizes the basis: cc-pVDZ 
       H, B-Ne : Obtained from the ccRepo (grant-hill.group.shef.ac.uk/ccrepo) Feb. 2017
                 T. H. Dunning, Jr., J. Chem. Phys. 90, 1007 (1989)
            He : Obtained from the ccRepo (grant-hill.group.shef.ac.uk/ccrepo) Feb. 2017
                 D. E. Woon, T. H. Dunning, Jr., J. Chem. Phys. 100, 2975 (1994)
  Li-Be, Na-Mg : Obtained from the ccRepo (grant-hill.group.shef.ac.uk/ccrepo) Feb. 2017
                 B. P. Prascher, D. E. Woon, K. A. Peterson, T. H. Dunning, Jr., A. K. Wilson, Theor. Chem. Acc. 128, 69 (2011)
         Al-Ar : Obtained from the ccRepo (grant-hill.group.shef.ac.uk/ccrepo) Feb. 2017
                 D. E. Woon, T. H. Dunning, Jr., J. Chem. Phys. 98, 1358 (1993)
            Ca : Obtained from the Peterson Research Group Website (tyr0.chem.wsu.edu/~kipeters) Feb. 2017
                 J. Koput, K. A. Peterson, J. Phys. Chem. 106, 9595 (2002)
         Sc-Zn : Obtained from the ccRepo (grant-hill.group.shef.ac.uk/ccrepo) Feb. 2017
                 N. B. Balabanov, K. A. Peterson, J. Chem. Phys. 123, 064107 (2005)
                 N. B. Balabanov, K. A. Peterson, J. Chem. Phys. 125, 074110 (2006)
         Ga-Kr : Obtained from the ccRepo (grant-hill.group.shef.ac.uk/ccrepo) Feb. 2017
                 A. K. Wilson, D. E. Woon, K. A. Peterson, T. H. Dunning, Jr., J. Chem. Phys. 110, 7667 (1999)

----- AuxJ basis set information -----
Your calculation utilizes the auxiliary basis: def2/J
   F. Weigend, Phys. Chem. Chem. Phys. 8, 1057 (2006).

================================================================================
                                        WARNINGS
                       Please study these warnings very carefully!
================================================================================

INFO   : Checking CIS options ...

WARNING: CIS/ROCIS methods need fully converged wavefunctions
  ===> : Setting SCFConvForced true
         You can overwrite this default with %scf ConvForced false 


INFO   : the flag for use of the SHARK integral package has been found!

================================================================================
                                       INPUT FILE
================================================================================
NAME = /gpfs/scratch/uam77/uam121718/12824459/engrad_0.in
|  1> ! engrad CAM-B3LYP cc-pvdz 
|  2> ! NoAutostart
|  3> 
|  4> 
|  5> %moinp "tmp.gbw" 
|  6> %scf guess moread end
|  7> %tddft nroots 3 iroot 0 tda TRUE end
|  8> * xyz 0 1
|  9> C      -0.387987223286490      3.270576664594585     -0.187405518541096
| 10> C      -0.834090733257736      1.976841723656260     -0.109807322573878
| 11> C       0.134866565010853      0.951274650447640     -0.039410837923347
| 12> C       1.492599751651249      1.263828264503559     -0.055774960894434
| 13> C       1.978521250154178      2.599957106351785     -0.123738382667804
| 14> C       1.034945231617222      3.586606299105438     -0.199948456421828
| 15> C       3.585378132213431      2.619010673732690     -0.124112937350058
| 16> C       4.386557460521310      1.470465682560169     -0.090847350513270
| 17> C       5.411434678754055      0.559518622362938      0.252846958430190
| 18> C       4.477596740216592      3.691028756526812     -0.184468779280341
| 19> C       5.838140139157165      3.185029779981494     -0.160650209807695
| 20> N       5.804715525881340      1.880245832341974     -0.096417458098463
| 21> N       2.508039143698244      0.359545929947960     -0.022533967305198
| 22> H       1.316006752724851      4.639878922124444     -0.261583584856060
| 23> H      -1.125694297065108      4.074975204008568     -0.236854806578551
| 24> H      -1.907754317588052      1.734506377891306     -0.104598390528435
| 25> H      -0.143381228019344     -0.105754724488201      0.027344692846134
| 26> H       5.728956432828908     -0.446025491073095     -0.075654324613378
| 27> H       4.287036678995406      4.762077549155793     -0.266505488567839
| 28> H       6.753940995206657      3.788248107810397     -0.204285509764455
| 29> H       2.108371488655822     -0.576421161681090      0.067195663766578
| 30> *
| 31> 
| 32> %pal nprocs 42 end
| 33> 
| 34>                          ****END OF INPUT****
================================================================================

                     *******************************
                     * Energy+Gradient Calculation *
                     *******************************

---------------------------------
CARTESIAN COORDINATES (ANGSTROEM)
---------------------------------
  C     -0.387987    3.270577   -0.187406
  C     -0.834091    1.976842   -0.109807
  C      0.134867    0.951275   -0.039411
  C      1.492600    1.263828   -0.055775
  C      1.978521    2.599957   -0.123738
  C      1.034945    3.586606   -0.199948
  C      3.585378    2.619011   -0.124113
  C      4.386557    1.470466   -0.090847
  C      5.411435    0.559519    0.252847
  C      4.477597    3.691029   -0.184469
  C      5.838140    3.185030   -0.160650
  N      5.804716    1.880246   -0.096417
  N      2.508039    0.359546   -0.022534
  H      1.316007    4.639879   -0.261584
  H     -1.125694    4.074975   -0.236855
  H     -1.907754    1.734506   -0.104598
  H     -0.143381   -0.105755    0.027345
  H      5.728956   -0.446025   -0.075654
  H      4.287037    4.762078   -0.266505
  H      6.753941    3.788248   -0.204286
  H      2.108371   -0.576421    0.067196

----------------------------
CARTESIAN COORDINATES (A.U.)
----------------------------
  NO LB      ZA    FRAG     MASS         X           Y           Z
   0 C     6.0000    0    12.011   -0.733190    6.180494   -0.354145
   1 C     6.0000    0    12.011   -1.576203    3.735689   -0.207506
   2 C     6.0000    0    12.011    0.254861    1.797649   -0.074476
   3 C     6.0000    0    12.011    2.820605    2.388289   -0.105399
   4 C     6.0000    0    12.011    3.738863    4.913207   -0.233832
   5 C     6.0000    0    12.011    1.955763    6.777704   -0.377848
   6 C     6.0000    0    12.011    6.775383    4.949213   -0.234539
   7 C     6.0000    0    12.011    8.289392    2.778777   -0.171677
   8 C     6.0000    0    12.011   10.226130    1.057337    0.477812
   9 C     6.0000    0    12.011    8.461432    6.975034   -0.348595
  10 C     6.0000    0    12.011   11.032486    6.018834   -0.303585
  11 N     7.0000    0    14.007   10.969323    3.553150   -0.182203
  12 N     7.0000    0    14.007    4.739507    0.679443   -0.042583
  13 H     1.0000    0     1.008    2.486892    8.768100   -0.494321
  14 H     1.0000    0     1.008   -2.127254    7.700587   -0.447591
  15 H     1.0000    0     1.008   -3.605133    3.277742   -0.197662
  16 H     1.0000    0     1.008   -0.270951   -0.199847    0.051674
  17 H     1.0000    0     1.008   10.826159   -0.842866   -0.142966
  18 H     1.0000    0     1.008    8.101325    8.999022   -0.503622
  19 H     1.0000    0     1.008   12.763099    7.158751   -0.386044
  20 H     1.0000    0     1.008    3.984245   -1.089278    0.126981

--------------------------------
INTERNAL COORDINATES (ANGSTROEM)
--------------------------------
 C      0   0   0     0.000000000000     0.00000000     0.00000000
 C      1   0   0     1.370685930121     0.00000000     0.00000000
 C      2   1   0     1.412664762981   117.69787877     0.00000000
 C      3   2   1     1.393340214120   120.32750383   359.71412824
 C      4   3   2     1.423368895060   122.94240388     0.87912482
 C      5   4   3     1.367340596801   116.38697586   358.76140678
 C      5   4   3     1.606969887130   110.64064188   179.95457974
 C      7   5   4     1.400767829486   124.20736016     1.26506835
 C      8   7   5     1.413620754281   161.58957431   225.26306605
 C      7   5   4     1.396037120552   130.40437779   179.67631888
 C     10   7   5     1.451785324667   109.30466390   180.22760502
 N     11  10   7     1.306791567612   108.95567160     0.29947614
 N      4   3   2     1.360128178947   125.31499712   181.51087734
 H      6   5   4     1.091868896025   121.43867920   180.36965361
 H      1   2   3     1.092572180225   118.53665092   180.33459151
 H      2   1   3     1.100684807335   121.70497734   180.16344094
 H      3   2   1     1.095074990442   121.97259462   179.82913321
 H      9   8   7     1.104469158165   136.28647072   182.40721005
 H     10   7   5     1.090957686987   130.20347386   358.54022276
 H     11  10   7     1.097482390917   126.14219680   179.44554789
 H     13   4   3     1.021675113621   108.61279782   356.97211899

---------------------------
INTERNAL COORDINATES (A.U.)
---------------------------
 C      0   0   0     0.000000000000     0.00000000     0.00000000
 C      1   0   0     2.590221023547     0.00000000     0.00000000
 C      2   1   0     2.669549521075   117.69787877     0.00000000
 C      3   2   1     2.633031416067   120.32750383   359.71412824
 C      4   3   2     2.689777399206   122.94240388     0.87912482
 C      5   4   3     2.583899259747   116.38697586   358.76140678
 C      5   4   3     3.036732992134   110.64064188   179.95457974
 C      7   5   4     2.647067574936   124.20736016     1.26506835
 C      8   7   5     2.671356082819   161.58957431   225.26306605
 C      7   5   4     2.638127830632   130.40437779   179.67631888
 C     10   7   5     2.743476668866   109.30466390   180.22760502
 N     11  10   7     2.469478176905   108.95567160     0.29947614
 N      4   3   2     2.570269765238   125.31499712   181.51087734
 H      6   5   4     2.063333187633   121.43867920   180.36965361
 H      1   2   3     2.064662202167   118.53665092   180.33459151
 H      2   1   3     2.079992845630   121.70497734   180.16344094
 H      3   2   1     2.069391828042   121.97259462   179.82913321
 H      9   8   7     2.087144232295   136.28647072   182.40721005
 H     10   7   5     2.061611252101   130.20347386   358.54022276
 H     11  10   7     2.073941155633   126.14219680   179.44554789
 H     13   4   3     1.930686162586   108.61279782   356.97211899

---------------------
BASIS SET INFORMATION
---------------------
There are 3 groups of distinct atoms

 Group   1 Type C   : 17s4p1d contracted to 3s2p1d pattern {881/31/1}
 Group   2 Type N   : 17s4p1d contracted to 3s2p1d pattern {881/31/1}
 Group   3 Type H   : 4s1p contracted to 2s1p pattern {31/1}

Atom   0C    basis set group =>   1
Atom   1C    basis set group =>   1
Atom   2C    basis set group =>   1
Atom   3C    basis set group =>   1
Atom   4C    basis set group =>   1
Atom   5C    basis set group =>   1
Atom   6C    basis set group =>   1
Atom   7C    basis set group =>   1
Atom   8C    basis set group =>   1
Atom   9C    basis set group =>   1
Atom  10C    basis set group =>   1
Atom  11N    basis set group =>   2
Atom  12N    basis set group =>   2
Atom  13H    basis set group =>   3
Atom  14H    basis set group =>   3
Atom  15H    basis set group =>   3
Atom  16H    basis set group =>   3
Atom  17H    basis set group =>   3
Atom  18H    basis set group =>   3
Atom  19H    basis set group =>   3
Atom  20H    basis set group =>   3
---------------------------------
AUXILIARY/J BASIS SET INFORMATION
---------------------------------
There are 3 groups of distinct atoms

 Group   1 Type C   : 12s5p4d2f1g contracted to 6s4p3d1f1g pattern {711111/2111/211/2/1}
 Group   2 Type N   : 12s5p4d2f1g contracted to 6s4p3d1f1g pattern {711111/2111/211/2/1}
 Group   3 Type H   : 5s2p1d contracted to 3s1p1d pattern {311/2/1}

Atom   0C    basis set group =>   1
Atom   1C    basis set group =>   1
Atom   2C    basis set group =>   1
Atom   3C    basis set group =>   1
Atom   4C    basis set group =>   1
Atom   5C    basis set group =>   1
Atom   6C    basis set group =>   1
Atom   7C    basis set group =>   1
Atom   8C    basis set group =>   1
Atom   9C    basis set group =>   1
Atom  10C    basis set group =>   1
Atom  11N    basis set group =>   2
Atom  12N    basis set group =>   2
Atom  13H    basis set group =>   3
Atom  14H    basis set group =>   3
Atom  15H    basis set group =>   3
Atom  16H    basis set group =>   3
Atom  17H    basis set group =>   3
Atom  18H    basis set group =>   3
Atom  19H    basis set group =>   3
Atom  20H    basis set group =>   3


           ************************************************************
           *        Program running with 42 parallel MPI-processes    *
           *              working on a common directory               *
           ************************************************************
------------------------------------------------------------------------------
                           ORCA GTO INTEGRAL CALCULATION
                           -- RI-GTO INTEGRALS CHOSEN --
------------------------------------------------------------------------------
------------------------------------------------------------------------------
                   ___                                                        
                  /   \      - P O W E R E D   B Y -                         
                 /     \                                                     
                 |  |  |   _    _      __       _____    __    __             
                 |  |  |  | |  | |    /  \     |  _  \  |  |  /  |          
                  \  \/   | |  | |   /    \    | | | |  |  | /  /          
                 / \  \   | |__| |  /  /\  \   | |_| |  |  |/  /          
                |  |  |   |  __  | /  /__\  \  |    /   |      \           
                |  |  |   | |  | | |   __   |  |    \   |  |\   \          
                \     /   | |  | | |  |  |  |  | |\  \  |  | \   \       
                 \___/    |_|  |_| |__|  |__|  |_| \__\ |__|  \__/        
                                                                              
                      - O R C A' S   B I G   F R I E N D -                    
                                      &                                       
                       - I N T E G R A L  F E E D E R -                       
                                                                              
 v1 FN, 2020, v2 2021                                                         
------------------------------------------------------------------------------


Reading SHARK input file /gpfs/scratch/uam77/uam121718/12824459/engrad_0.SHARKINP.tmp ... ok
----------------------
SHARK INTEGRAL PACKAGE
----------------------

Number of atoms                             ...     21
Number of basis functions                   ...    300
Number of shells                            ...    180
Maximum angular momentum                    ...      2
Integral batch strategy                     ... SHARK/LIBINT Hybrid
RI-J (if used) integral strategy            ... SPLIT-RIJ (Revised 2003 algorithm where possible)
Printlevel                                  ...      1
Contraction scheme used                     ... PARTIAL GENERAL contraction
Coulomb Range Separation                    ... NOT USED
Exchange Range Separation                   ... Long Range
   Mu parameter                             ...  0.330000
   Scaling (regular/separated)              ...  0.190000  0.460000
Finite Nucleus Model                        ... NOT USED
Auxiliary Coulomb fitting basis             ... AVAILABLE
   # of basis functions in Aux-J            ...    725
   # of shells in Aux-J                     ...    235
   Maximum angular momentum in Aux-J        ...      4
Auxiliary J/K fitting basis                 ... NOT available
Auxiliary Correlation fitting basis         ... NOT available
Auxiliary 'external' fitting basis          ... NOT available
Integral threshold                          ...     2.500000e-11
Primitive cut-off                           ...     2.500000e-12
Primitive pair pre-selection threshold      ...     2.500000e-12

Calculating pre-screening integrals         ... done (  0.0 sec) Dimension = 180
Calculating pre-screening integrals (ORCA)  ... done (  0.1 sec) Dimension = 102
Organizing shell pair data                  ... done (  0.1 sec)
Shell pair information
Total number of shell pairs                 ...     16290
Shell pairs after pre-screening             ...     10047
Total number of primitive shell pairs       ...     24816
Primitive shell pairs kept                  ...     13575
          la=0 lb=0:   4328 shell pairs
          la=1 lb=0:   3442 shell pairs
          la=1 lb=1:    535 shell pairs
          la=2 lb=0:   1263 shell pairs
          la=2 lb=1:    396 shell pairs
          la=2 lb=2:     83 shell pairs

Calculating one electron integrals          ... done (  0.0 sec)
Calculating RI/J V-Matrix + Cholesky decomp.... done (  0.0 sec)
Calculating Nuclear repulsion               ... done (  0.0 sec) ENN=    690.460174789378 Eh

SHARK setup successfully completed in   0.3 seconds

Maximum memory used throughout the entire GTOINT-calculation: 20.7 MB


           ************************************************************
           *        Program running with 42 parallel MPI-processes    *
           *              working on a common directory               *
           ************************************************************
-------------------------------------------------------------------------------
                                 ORCA SCF
-------------------------------------------------------------------------------

------------
SCF SETTINGS
------------
Hamiltonian:
 Density Functional     Method          .... DFT(GTOs)
 Exchange Functional    Exchange        .... WB88
 Correlation Functional Correlation     .... LYP
 LDA part of GGA corr.  LDAOpt          .... VWN-5
 Gradients option       PostSCFGGA      .... off
 Hybrid DFT is turned on
   Fraction HF Exchange ScalHFX         ....  0.190000
   Scaling of DF-GGA-X  ScalDFX         ....  0.350000
   Scaling of DF-GGA-C  ScalDFC         ....  0.810000
   Scaling of DF-LDA-C  ScalLDAC        ....  1.000000
   Perturbative correction              ....  0.000000
   Density functional embedding theory  .... OFF
 Long-range corrected/Screened/Range-Separated Hybrid DFT is turned on
   Amount of maximum screened exact exchange              ....  0.460000
   Range separation parameter mu (erf(mu*r12)/r12)        ....  0.330000
 RI-approximation to the Coulomb term is turned on
   Number of AuxJ basis functions       .... 725
   RIJ-COSX (HFX calculated with COS-X)).... on


General Settings:
 Integral files         IntName         .... /gpfs/scratch/uam77/uam121718/12824459/engrad_0
 Hartree-Fock type      HFTyp           .... RHF
 Total Charge           Charge          ....    0
 Multiplicity           Mult            ....    1
 Number of Electrons    NEL             ....   88
 Basis Dimension        Dim             ....  222
 Nuclear Repulsion      ENuc            ....    690.4601747894 Eh

Convergence Acceleration:
 DIIS                   CNVDIIS         .... on
   Start iteration      DIISMaxIt       ....    12
   Startup error        DIISStart       ....  0.200000
   # of expansion vecs  DIISMaxEq       ....     5
   Bias factor          DIISBfac        ....   1.050
   Max. coefficient     DIISMaxC        ....  10.000
 Trust-Rad. Augm. Hess. CNVTRAH         .... auto
   Auto Start mean grad. ratio tolernc. ....  1.125000
   Auto Start start iteration           ....     1
   Auto Start num. interpolation iter.  ....    10
   Max. Number of Micro iterations      ....    16
   Max. Number of Macro iterations      .... Maxiter - #DIIS iter
   Number of Davidson start vectors     ....     2
   Converg. threshold I  (grad. norm)   ....   1.000e-05
   Converg. threshold II (energy diff.) ....   1.000e-08
   Grad. Scal. Fac. for Micro threshold ....   0.100
   Minimum threshold for Micro iter.    ....   0.010
   NR start threshold (gradient norm)   ....   0.001
   Initial trust radius                 ....   0.400
   Minimum AH scaling param. (alpha)    ....   1.000
   Maximum AH scaling param. (alpha)    .... 1000.000
   Orbital update algorithm             .... Taylor
   White noise on init. David. guess    .... on
   Maximum white noise                  ....   0.010
   Quad. conv. algorithm                .... NR
 SOSCF                  CNVSOSCF        .... on
   Start iteration      SOSCFMaxIt      ....   150
   Startup grad/error   SOSCFStart      ....  0.003300
 Level Shifting         CNVShift        .... on
   Level shift para.    LevelShift      ....    0.2500
   Turn off err/grad.   ShiftErr        ....    0.0010
 Zerner damping         CNVZerner       .... off
 Static damping         CNVDamp         .... on
   Fraction old density DampFac         ....    0.7000
   Max. Damping (<1)    DampMax         ....    0.9800
   Min. Damping (>=0)   DampMin         ....    0.0000
   Turn off err/grad.   DampErr         ....    0.1000
 Fernandez-Rico         CNVRico         .... off

SCF Procedure:
 Maximum # iterations   MaxIter         ....   125
 SCF integral mode      SCFMode         .... Direct
   Integral package                     .... SHARK and LIBINT hybrid scheme
 Reset frequency        DirectResetFreq ....    20
 Integral Threshold     Thresh          ....  2.500e-11 Eh
 Primitive CutOff       TCut            ....  2.500e-12 Eh

Convergence Tolerance:
 Convergence Check Mode ConvCheckMode   .... Total+1el-Energy
 Convergence forced     ConvForced      .... 1
 Energy Change          TolE            ....  1.000e-08 Eh
 1-El. energy change                    ....  1.000e-05 Eh
 Orbital Gradient       TolG            ....  1.000e-05
 Orbital Rotation angle TolX            ....  1.000e-05
 DIIS Error             TolErr          ....  5.000e-07


Diagonalization of the overlap matrix:
Smallest eigenvalue                        ... 2.769e-04
Time for diagonalization                   ...    0.011 sec
Threshold for overlap eigenvalues          ... 1.000e-08
Number of eigenvalues below threshold      ... 0
Time for construction of square roots      ...    0.012 sec
Total time needed                          ...    0.025 sec

---------------------
INITIAL GUESS: MOREAD
---------------------
Guess MOs are being read from file: tmp.gbw
Input Geometry matches current geometry (good)
Input basis set matches current basis set (good)
MOs were renormalized
MOs were reorthogonalized (Cholesky)
                      ------------------
                      INITIAL GUESS DONE (   0.0 sec)
                      ------------------
-------------------
DFT GRID GENERATION
-------------------

General Integration Accuracy     IntAcc      ... 4.388
Radial Grid Type                 RadialGrid  ... OptM3 with GC (2021)
Angular Grid (max. ang.)         AngularGrid ... 4 (Lebedev-302)
Angular grid pruning method      GridPruning ... 4 (adaptive)
Weight generation scheme         WeightScheme... Becke
Basis function cutoff            BFCut       ... 1.0000e-11
Integration weight cutoff        WCut        ... 1.0000e-14
Angular grids for H and He will be reduced by one unit
Partially contracted basis set               ... off
Rotationally invariant grid construction     ... off

Total number of grid points                  ...   103717
Total number of batches                      ...     1631
Average number of points per batch           ...       63
Average number of grid points per atom       ...     4939
Time for grid setup =    0.531 sec

--------------------
COSX GRID GENERATION
--------------------

GRIDX 1
-------
General Integration Accuracy     IntAcc      ... 3.816
Radial Grid Type                 RadialGrid  ... OptM3 with GC (2021)
Angular Grid (max. ang.)         AngularGrid ... 1 (Lebedev-50)
Angular grid pruning method      GridPruning ... 4 (adaptive)
Weight generation scheme         WeightScheme... Becke
Basis function cutoff            BFCut       ... 1.0000e-11
Integration weight cutoff        WCut        ... 1.0000e-14
Angular grids for H and He will be reduced by one unit
Partially contracted basis set               ... on
Rotationally invariant grid construction     ... off

Total number of grid points                  ...    13221
Total number of batches                      ...      218
Average number of points per batch           ...       60
Average number of grid points per atom       ...      630
UseSFitting                                  ... on

GRIDX 2
-------
General Integration Accuracy     IntAcc      ... 4.020
Radial Grid Type                 RadialGrid  ... OptM3 with GC (2021)
Angular Grid (max. ang.)         AngularGrid ... 2 (Lebedev-110)
Angular grid pruning method      GridPruning ... 4 (adaptive)
Weight generation scheme         WeightScheme... Becke
Basis function cutoff            BFCut       ... 1.0000e-11
Integration weight cutoff        WCut        ... 1.0000e-14
Angular grids for H and He will be reduced by one unit
Partially contracted basis set               ... on
Rotationally invariant grid construction     ... off

Total number of grid points                  ...    29287
Total number of batches                      ...      468
Average number of points per batch           ...       62
Average number of grid points per atom       ...     1395
UseSFitting                                  ... on

GRIDX 3
-------
General Integration Accuracy     IntAcc      ... 4.338
Radial Grid Type                 RadialGrid  ... OptM3 with GC (2021)
Angular Grid (max. ang.)         AngularGrid ... 3 (Lebedev-194)
Angular grid pruning method      GridPruning ... 4 (adaptive)
Weight generation scheme         WeightScheme... Becke
Basis function cutoff            BFCut       ... 1.0000e-11
Integration weight cutoff        WCut        ... 1.0000e-14
Angular grids for H and He will be reduced by one unit
Partially contracted basis set               ... on
Rotationally invariant grid construction     ... off

Total number of grid points                  ...    64304
Total number of batches                      ...     1016
Average number of points per batch           ...       63
Average number of grid points per atom       ...     3062
UseSFitting                                  ... on

Time for X-Grid setup             =    0.925 sec

 re-compute Schwartz prescreening matrix in partically contracted basis (1) ...done (   0.067 sec)
--------------
SCF ITERATIONS
--------------
ITER       Energy         Delta-E        Max-DP      RMS-DP      [F,P]     Damp
               ***  Starting incremental Fock matrix formation  ***
                      *** Initiating the SOSCF procedure ***
                      *** Re-Reading the Fockian *** 
                      *** Removing any level shift *** 
ITER      Energy       Delta-E        Grad      Rot      Max-DP    RMS-DP
  0   -532.93580981 -532.9358098109  0.000005  0.000005  0.000018  0.000001
               *** Restarting incremental Fock matrix formation ***
  1   -532.93580981  -0.0000000038  0.000003  0.000022  0.000013  0.000000
                  ***Gradient check signals convergence***
              ***Rediagonalizing the Fockian in SOSCF/NRSCF***

               *****************************************************
               *                     SUCCESS                       *
               *           SCF CONVERGED AFTER   2 CYCLES          *
               *****************************************************

Old exchange energy                            =    -20.687908045 Eh
New exchange energy                            =    -20.687907664 Eh
Exchange energy change after final integration =      0.000000381 Eh
Total energy after final integration           =   -532.935809433 Eh
Final COS-X integration done in                =     1.355 sec

----------------
TOTAL SCF ENERGY
----------------

Total Energy       :         -532.93580943 Eh          -14501.92064 eV

Components:
Nuclear Repulsion  :          690.46017479 Eh           18788.37654 eV
Electronic Energy  :        -1223.39598422 Eh          -33290.29718 eV
One Electron Energy:        -2089.44834455 Eh          -56856.78000 eV
Two Electron Energy:          866.05236033 Eh           23566.48282 eV
Max COSX asymmetry :            0.00000148 Eh               0.00004 eV

Virial components:
Potential Energy   :        -1062.09280586 Eh          -28901.01455 eV
Kinetic Energy     :          529.15699643 Eh           14399.09391 eV
Virial Ratio       :            2.00714119


DFT components:
N(Alpha)           :       44.000024802647 electrons
N(Beta)            :       44.000024802647 electrons
N(Total)           :       88.000049605294 electrons
E(XC)              :      -55.335120752351 Eh       
DFET-embed. en.    :        0.000000000000 Eh       

---------------
SCF CONVERGENCE
---------------

  Last Energy change         ...    9.7782e-10  Tolerance :   1.0000e-08
  Last MAX-Density change    ...    4.4409e-15  Tolerance :   1.0000e-07
  Last RMS-Density change    ...    4.8573e-17  Tolerance :   5.0000e-09
  Last Orbital Gradient      ...    2.1400e-06  Tolerance :   1.0000e-05
  Last Orbital Rotation      ...    3.9625e-05  Tolerance :   1.0000e-05

             **** THE GBW FILE WAS UPDATED (/gpfs/scratch/uam77/uam121718/12824459/engrad_0.gbw) ****
             **** DENSITY /gpfs/scratch/uam77/uam121718/12824459/engrad_0.scfp WAS UPDATED ****
             **** ENERGY FILE WAS UPDATED (/gpfs/scratch/uam77/uam121718/12824459/engrad_0.en.tmp) ****
             **** THE GBW FILE WAS UPDATED (/gpfs/scratch/uam77/uam121718/12824459/engrad_0.gbw) ****
             **** DENSITY /gpfs/scratch/uam77/uam121718/12824459/engrad_0.scfp WAS UPDATED ****
----------------
ORBITAL ENERGIES
----------------

  NO   OCC          E(Eh)            E(eV) 
   0   2.0000     -14.509709      -394.8293 
   1   2.0000     -14.297351      -389.0507 
   2   2.0000     -10.417394      -283.4717 
   3   2.0000     -10.383831      -282.5584 
   4   2.0000     -10.360048      -281.9112 
   5   2.0000     -10.323577      -280.9188 
   6   2.0000     -10.319060      -280.7959 
   7   2.0000     -10.245770      -278.8016 
   8   2.0000     -10.245266      -278.7879 
   9   2.0000     -10.245023      -278.7812 
  10   2.0000     -10.231821      -278.4220 
  11   2.0000     -10.216491      -278.0049 
  12   2.0000     -10.207986      -277.7734 
  13   2.0000      -1.169046       -31.8114 
  14   2.0000      -0.957158       -26.0456 
  15   2.0000      -0.934688       -25.4342 
  16   2.0000      -0.885957       -24.1081 
  17   2.0000      -0.859480       -23.3876 
  18   2.0000      -0.796999       -21.6874 
  19   2.0000      -0.761398       -20.7187 
  20   2.0000      -0.738556       -20.0971 
  21   2.0000      -0.690356       -18.7855 
  22   2.0000      -0.669546       -18.2193 
  23   2.0000      -0.651077       -17.7167 
  24   2.0000      -0.620209       -16.8767 
  25   2.0000      -0.598021       -16.2730 
  26   2.0000      -0.571312       -15.5462 
  27   2.0000      -0.552046       -15.0219 
  28   2.0000      -0.535200       -14.5635 
  29   2.0000      -0.530599       -14.4383 
  30   2.0000      -0.490339       -13.3428 
  31   2.0000      -0.482501       -13.1295 
  32   2.0000      -0.456847       -12.4314 
  33   2.0000      -0.431523       -11.7423 
  34   2.0000      -0.428760       -11.6671 
  35   2.0000      -0.423438       -11.5223 
  36   2.0000      -0.390916       -10.6374 
  37   2.0000      -0.384490       -10.4625 
  38   2.0000      -0.365340        -9.9414 
  39   2.0000      -0.358594        -9.7578 
  40   2.0000      -0.309507        -8.4221 
  41   2.0000      -0.276719        -7.5299 
  42   2.0000      -0.267675        -7.2838 
  43   2.0000      -0.178836        -4.8664 
  44   0.0000      -0.086225        -2.3463 
  45   0.0000       0.012739         0.3466 
  46   0.0000       0.054268         1.4767 
  47   0.0000       0.074119         2.0169 
  48   0.0000       0.098821         2.6891 
  49   0.0000       0.108826         2.9613 
  50   0.0000       0.113308         3.0833 
  51   0.0000       0.121350         3.3021 
  52   0.0000       0.133401         3.6300 
  53   0.0000       0.143615         3.9080 
  54   0.0000       0.168095         4.5741 
  55   0.0000       0.171816         4.6753 
  56   0.0000       0.198108         5.3908 
  57   0.0000       0.204571         5.5667 
  58   0.0000       0.224929         6.1206 
  59   0.0000       0.228514         6.2182 
  60   0.0000       0.271912         7.3991 
  61   0.0000       0.275716         7.5026 
  62   0.0000       0.294995         8.0272 
  63   0.0000       0.302868         8.2415 
  64   0.0000       0.357093         9.7170 
  65   0.0000       0.366788         9.9808 
  66   0.0000       0.381772        10.3885 
  67   0.0000       0.385602        10.4928 
  68   0.0000       0.388946        10.5838 
  69   0.0000       0.429937        11.6992 
  70   0.0000       0.443078        12.0568 
  71   0.0000       0.462878        12.5955 
  72   0.0000       0.470043        12.7905 
  73   0.0000       0.480675        13.0798 
  74   0.0000       0.500879        13.6296 
  75   0.0000       0.523748        14.2519 
  76   0.0000       0.534775        14.5520 
  77   0.0000       0.539574        14.6825 
  78   0.0000       0.548898        14.9363 
  79   0.0000       0.566306        15.4100 
  80   0.0000       0.571443        15.5497 
  81   0.0000       0.579399        15.7662 
  82   0.0000       0.580092        15.7851 
  83   0.0000       0.601846        16.3771 
  84   0.0000       0.609807        16.5937 
  85   0.0000       0.621155        16.9025 
  86   0.0000       0.621817        16.9205 
  87   0.0000       0.628206        17.0944 
  88   0.0000       0.637123        17.3370 
  89   0.0000       0.648123        17.6363 
  90   0.0000       0.658026        17.9058 
  91   0.0000       0.668951        18.2031 
  92   0.0000       0.687277        18.7018 
  93   0.0000       0.693478        18.8705 
  94   0.0000       0.702896        19.1268 
  95   0.0000       0.707968        19.2648 
  96   0.0000       0.722921        19.6717 
  97   0.0000       0.733667        19.9641 
  98   0.0000       0.744077        20.2474 
  99   0.0000       0.750572        20.4241 
 100   0.0000       0.760928        20.7059 
 101   0.0000       0.768396        20.9091 
 102   0.0000       0.777072        21.1452 
 103   0.0000       0.799816        21.7641 
 104   0.0000       0.821913        22.3654 
 105   0.0000       0.829725        22.5780 
 106   0.0000       0.857247        23.3269 
 107   0.0000       0.865857        23.5612 
 108   0.0000       0.880393        23.9567 
 109   0.0000       0.921778        25.0829 
 110   0.0000       0.933158        25.3925 
 111   0.0000       0.948771        25.8174 
 112   0.0000       0.963925        26.2297 
 113   0.0000       0.976279        26.5659 
 114   0.0000       0.984637        26.7933 
 115   0.0000       0.995512        27.0893 
 116   0.0000       1.013489        27.5784 
 117   0.0000       1.019570        27.7439 
 118   0.0000       1.032170        28.0868 
 119   0.0000       1.046386        28.4736 
 120   0.0000       1.051274        28.6066 
 121   0.0000       1.065028        28.9809 
 122   0.0000       1.069079        29.0911 
 123   0.0000       1.091428        29.6993 
 124   0.0000       1.124844        30.6085 
 125   0.0000       1.126591        30.6561 
 126   0.0000       1.127385        30.6777 
 127   0.0000       1.138368        30.9766 
 128   0.0000       1.166005        31.7286 
 129   0.0000       1.167867        31.7793 
 130   0.0000       1.183710        32.2104 
 131   0.0000       1.197421        32.5835 
 132   0.0000       1.232245        33.5311 
 133   0.0000       1.250954        34.0402 
 134   0.0000       1.267869        34.5005 
 135   0.0000       1.301901        35.4265 
 136   0.0000       1.317032        35.8383 
 137   0.0000       1.331803        36.2402 
 138   0.0000       1.388360        37.7792 
 139   0.0000       1.394400        37.9436 
 140   0.0000       1.416978        38.5579 
 141   0.0000       1.431160        38.9438 
 142   0.0000       1.451348        39.4932 
 143   0.0000       1.456834        39.6425 
 144   0.0000       1.474198        40.1150 
 145   0.0000       1.506345        40.9897 
 146   0.0000       1.528739        41.5991 
 147   0.0000       1.545493        42.0550 
 148   0.0000       1.558811        42.4174 
 149   0.0000       1.580283        43.0017 
 150   0.0000       1.590135        43.2698 
 151   0.0000       1.592959        43.3466 
 152   0.0000       1.614758        43.9398 
 153   0.0000       1.622591        44.1529 
 154   0.0000       1.636466        44.5305 
 155   0.0000       1.644843        44.7585 
 156   0.0000       1.670323        45.4518 
 157   0.0000       1.677852        45.6567 
 158   0.0000       1.696281        46.1581 
 159   0.0000       1.704409        46.3793 
 160   0.0000       1.721420        46.8422 
 161   0.0000       1.730043        47.0769 
 162   0.0000       1.753534        47.7161 
 163   0.0000       1.755902        47.7805 
 164   0.0000       1.774324        48.2818 
 165   0.0000       1.775062        48.3019 
 166   0.0000       1.788622        48.6709 
 167   0.0000       1.819652        49.5152 
 168   0.0000       1.835799        49.9546 
 169   0.0000       1.859693        50.6048 
 170   0.0000       1.869793        50.8797 
 171   0.0000       1.882263        51.2190 
 172   0.0000       1.893070        51.5131 
 173   0.0000       1.908560        51.9346 
 174   0.0000       1.911879        52.0249 
 175   0.0000       1.931251        52.5520 
 176   0.0000       1.931491        52.5586 
 177   0.0000       1.947936        53.0060 
 178   0.0000       1.968666        53.5701 
 179   0.0000       1.976674        53.7880 
 180   0.0000       1.991997        54.2050 
 181   0.0000       2.008439        54.6524 
 182   0.0000       2.023912        55.0734 
 183   0.0000       2.026600        55.1466 
 184   0.0000       2.074411        56.4476 
 185   0.0000       2.078336        56.5544 
 186   0.0000       2.098975        57.1160 
 187   0.0000       2.123367        57.7798 
 188   0.0000       2.141000        58.2596 
 189   0.0000       2.157502        58.7086 
 190   0.0000       2.166441        58.9519 
 191   0.0000       2.222663        60.4817 
 192   0.0000       2.252007        61.2802 
 193   0.0000       2.257618        61.4329 
 194   0.0000       2.280448        62.0542 
 195   0.0000       2.288043        62.2608 
 196   0.0000       2.309998        62.8583 
 197   0.0000       2.353254        64.0353 
 198   0.0000       2.385036        64.9001 
 199   0.0000       2.409295        65.5602 
 200   0.0000       2.434356        66.2422 
 201   0.0000       2.467560        67.1457 
 202   0.0000       2.483312        67.5744 
 203   0.0000       2.503495        68.1236 
 204   0.0000       2.530519        68.8589 
 205   0.0000       2.558401        69.6176 
 206   0.0000       2.561818        69.7106 
 207   0.0000       2.600047        70.7509 
 208   0.0000       2.665518        72.5324 
 209   0.0000       2.695859        73.3580 
 210   0.0000       2.725134        74.1547 
 211   0.0000       2.748665        74.7950 
 212   0.0000       2.793815        76.0236 
 213   0.0000       2.814643        76.5903 
 214   0.0000       2.848742        77.5182 
 215   0.0000       2.888744        78.6067 
 216   0.0000       2.934692        79.8570 
 217   0.0000       3.008552        81.8669 
 218   0.0000       3.071003        83.5662 
 219   0.0000       3.178997        86.5049 
 220   0.0000       3.223644        87.7198 
 221   0.0000       3.608812        98.2008 

                    ********************************
                    * MULLIKEN POPULATION ANALYSIS *
                    ********************************

-----------------------
MULLIKEN ATOMIC CHARGES
-----------------------
   0 C :   -0.001749
   1 C :    0.044302
   2 C :    0.002267
   3 C :   -0.014875
   4 C :    0.052801
   5 C :   -0.063997
   6 C :    0.065642
   7 C :    0.233202
   8 C :    0.075974
   9 C :   -0.043417
  10 C :    0.093829
  11 N :   -0.077693
  12 N :   -0.338290
  13 H :   -0.062199
  14 H :   -0.051502
  15 H :   -0.036603
  16 H :   -0.059076
  17 H :    0.124524
  18 H :    0.009918
  19 H :    0.036672
  20 H :    0.010270
Sum of atomic charges:    0.0000000

--------------------------------
MULLIKEN REDUCED ORBITAL CHARGES
--------------------------------
  0 C s       :     3.075726  s :     3.075726
      pz      :     1.108584  p :     2.864568
      px      :     0.869494
      py      :     0.886490
      dz2     :     0.003206  d :     0.061455
      dxz     :     0.007011
      dyz     :     0.007879
      dx2y2   :     0.018242
      dxy     :     0.025117
  1 C s       :     3.104966  s :     3.104966
      pz      :     0.945586  p :     2.780242
      px      :     0.852870
      py      :     0.981786
      dz2     :     0.003175  d :     0.070490
      dxz     :     0.004743
      dyz     :     0.017560
      dx2y2   :     0.025210
      dxy     :     0.019801
  2 C s       :     3.065579  s :     3.065579
      pz      :     1.110941  p :     2.873142
      px      :     0.958069
      py      :     0.804132
      dz2     :     0.003033  d :     0.059013
      dxz     :     0.009613
      dyz     :     0.004731
      dx2y2   :     0.024334
      dxy     :     0.017302
  3 C s       :     3.090640  s :     3.090640
      pz      :     0.887997  p :     2.797839
      px      :     0.875116
      py      :     1.034727
      dz2     :     0.006215  d :     0.126395
      dxz     :     0.024684
      dyz     :     0.019820
      dx2y2   :     0.041113
      dxy     :     0.034564
  4 C s       :     3.132200  s :     3.132200
      pz      :     1.100497  p :     2.743330
      px      :     0.694636
      py      :     0.948196
      dz2     :     0.004799  d :     0.071670
      dxz     :     0.008443
      dyz     :     0.011564
      dx2y2   :     0.028471
      dxy     :     0.018392
  5 C s       :     3.176120  s :     3.176120
      pz      :     0.974964  p :     2.819554
      px      :     0.959060
      py      :     0.885530
      dz2     :     0.003213  d :     0.068322
      dxz     :     0.016678
      dyz     :     0.005694
      dx2y2   :     0.023261
      dxy     :     0.019477
  6 C s       :     3.190263  s :     3.190263
      pz      :     0.948688  p :     2.664353
      px      :     0.818229
      py      :     0.897437
      dz2     :     0.004895  d :     0.079742
      dxz     :     0.018338
      dyz     :     0.007477
      dx2y2   :     0.019949
      dxy     :     0.029082
  7 C s       :     3.186939  s :     3.186939
      pz      :     0.872909  p :     2.447183
      px      :     0.672539
      py      :     0.901736
      dz2     :     0.008356  d :     0.132676
      dxz     :     0.021821
      dyz     :     0.012473
      dx2y2   :     0.035289
      dxy     :     0.054738
  8 C s       :     3.217478  s :     3.217478
      pz      :     0.865987  p :     2.616472
      px      :     0.942474
      py      :     0.808010
      dz2     :     0.007430  d :     0.090077
      dxz     :     0.008382
      dyz     :     0.019815
      dx2y2   :     0.025702
      dxy     :     0.028748
  9 C s       :     3.233305  s :     3.233305
      pz      :     0.909012  p :     2.747475
      px      :     0.924531
      py      :     0.913931
      dz2     :     0.003605  d :     0.062638
      dxz     :     0.010931
      dyz     :     0.007888
      dx2y2   :     0.024402
      dxy     :     0.015812
 10 C s       :     3.076884  s :     3.076884
      pz      :     1.020637  p :     2.727613
      px      :     0.902280
      py      :     0.804697
      dz2     :     0.004870  d :     0.101674
      dxz     :     0.008504
      dyz     :     0.017217
      dx2y2   :     0.030812
      dxy     :     0.040270
 11 N s       :     3.431853  s :     3.431853
      pz      :     1.264071  p :     3.596644
      px      :     1.317024
      py      :     1.015549
      dz2     :     0.003765  d :     0.049195
      dxz     :     0.004661
      dyz     :     0.015553
      dx2y2   :     0.013039
      dxy     :     0.012176
 12 N s       :     3.474257  s :     3.474257
      pz      :     1.515418  p :     3.839549
      px      :     1.338129
      py      :     0.986003
      dz2     :     0.002800  d :     0.024483
      dxz     :     0.003959
      dyz     :     0.001502
      dx2y2   :     0.005976
      dxy     :     0.010245
 13 H s       :     1.034875  s :     1.034875
      pz      :     0.005931  p :     0.027324
      px      :     0.004765
      py      :     0.016628
 14 H s       :     1.023071  s :     1.023071
      pz      :     0.007160  p :     0.028432
      px      :     0.009790
      py      :     0.011482
 15 H s       :     1.009461  s :     1.009461
      pz      :     0.005384  p :     0.027143
      px      :     0.017014
      py      :     0.004745
 16 H s       :     1.030721  s :     1.030721
      pz      :     0.006964  p :     0.028355
      px      :     0.004968
      py      :     0.016423
 17 H s       :     0.844958  s :     0.844958
      pz      :     0.005985  p :     0.030518
      px      :     0.005593
      py      :     0.018941
 18 H s       :     0.961692  s :     0.961692
      pz      :     0.005237  p :     0.028390
      px      :     0.004353
      py      :     0.018800
 19 H s       :     0.935074  s :     0.935074
      pz      :     0.005946  p :     0.028255
      px      :     0.014866
      py      :     0.007442
 20 H s       :     0.936420  s :     0.936420
      pz      :     0.013971  p :     0.053310
      px      :     0.013125
      py      :     0.026214


                     *******************************
                     * LOEWDIN POPULATION ANALYSIS *
                     *******************************

----------------------
LOEWDIN ATOMIC CHARGES
----------------------
   0 C :   -0.101997
   1 C :   -0.024293
   2 C :   -0.098137
   3 C :   -0.064234
   4 C :   -0.076711
   5 C :   -0.025328
   6 C :   -0.009102
   7 C :    0.070649
   8 C :    0.107140
   9 C :    0.032466
  10 C :   -0.054510
  11 N :    0.221536
  12 N :   -0.191002
  13 H :    0.015383
  14 H :    0.014327
  15 H :    0.025493
  16 H :    0.014009
  17 H :    0.072296
  18 H :    0.040920
  19 H :    0.034113
  20 H :   -0.003016

-------------------------------
LOEWDIN REDUCED ORBITAL CHARGES
-------------------------------
  0 C s       :     2.810041  s :     2.810041
      pz      :     1.064470  p :     3.102678
      px      :     0.999578
      py      :     1.038631
      dz2     :     0.012574  d :     0.189278
      dxz     :     0.017826
      dyz     :     0.019447
      dx2y2   :     0.060274
      dxy     :     0.079158
  1 C s       :     2.814370  s :     2.814370
      pz      :     0.913249  p :     2.997465
      px      :     1.014844
      py      :     1.069372
      dz2     :     0.013390  d :     0.212458
      dxz     :     0.009583
      dyz     :     0.046113
      dx2y2   :     0.077366
      dxy     :     0.066005
  2 C s       :     2.811368  s :     2.811368
      pz      :     1.057092  p :     3.097519
      px      :     1.033654
      py      :     1.006773
      dz2     :     0.013301  d :     0.189250
      dxz     :     0.024999
      dyz     :     0.009622
      dx2y2   :     0.077454
      dxy     :     0.063873
  3 C s       :     2.795800  s :     2.795800
      pz      :     0.871167  p :     2.927272
      px      :     1.042437
      py      :     1.013667
      dz2     :     0.019170  d :     0.341162
      dxz     :     0.060377
      dyz     :     0.048516
      dx2y2   :     0.110639
      dxy     :     0.102461
  4 C s       :     2.809765  s :     2.809765
      pz      :     1.057328  p :     3.048028
      px      :     0.929821
      py      :     1.060879
      dz2     :     0.015209  d :     0.218919
      dxz     :     0.018896
      dyz     :     0.029195
      dx2y2   :     0.090643
      dxy     :     0.064976
  5 C s       :     2.818409  s :     2.818409
      pz      :     0.939168  p :     3.003597
      px      :     1.043348
      py      :     1.021081
      dz2     :     0.012548  d :     0.203322
      dxz     :     0.041719
      dyz     :     0.012294
      dx2y2   :     0.074897
      dxy     :     0.061864
  6 C s       :     2.825960  s :     2.825960
      pz      :     0.925864  p :     2.956742
      px      :     1.013423
      py      :     1.017456
      dz2     :     0.015411  d :     0.226400
      dxz     :     0.036318
      dyz     :     0.018537
      dx2y2   :     0.064285
      dxy     :     0.091848
  7 C s       :     2.854726  s :     2.854726
      pz      :     0.859146  p :     2.750430
      px      :     0.866460
      py      :     1.024824
      dz2     :     0.024772  d :     0.324195
      dxz     :     0.051776
      dyz     :     0.027506
      dx2y2   :     0.090145
      dxy     :     0.129997
  8 C s       :     2.904369  s :     2.904369
      pz      :     0.870390  p :     2.769560
      px      :     0.989578
      py      :     0.909592
      dz2     :     0.016384  d :     0.218930
      dxz     :     0.019449
      dyz     :     0.038672
      dx2y2   :     0.070964
      dxy     :     0.073462
  9 C s       :     2.844977  s :     2.844977
      pz      :     0.874710  p :     2.936039
      px      :     1.024003
      py      :     1.037326
      dz2     :     0.013503  d :     0.186519
      dxz     :     0.028153
      dyz     :     0.013426
      dx2y2   :     0.075541
      dxy     :     0.055896
 10 C s       :     2.825823  s :     2.825823
      pz      :     0.998610  p :     2.957146
      px      :     1.036358
      py      :     0.922178
      dz2     :     0.016962  d :     0.271542
      dxz     :     0.016651
      dyz     :     0.039491
      dx2y2   :     0.087794
      dxy     :     0.110644
 11 N s       :     3.008598  s :     3.008598
      pz      :     1.208398  p :     3.654538
      px      :     1.301285
      py      :     1.144855
      dz2     :     0.009850  d :     0.115329
      dxz     :     0.008990
      dyz     :     0.034213
      dx2y2   :     0.030231
      dxy     :     0.032044
 12 N s       :     3.187900  s :     3.187900
      pz      :     1.468620  p :     3.943308
      px      :     1.368719
      py      :     1.105970
      dz2     :     0.007842  d :     0.059794
      dxz     :     0.005278
      dyz     :     0.003560
      dx2y2   :     0.017070
      dxy     :     0.026044
 13 H s       :     0.905663  s :     0.905663
      pz      :     0.017645  p :     0.078954
      px      :     0.017206
      py      :     0.044102
 14 H s       :     0.904533  s :     0.904533
      pz      :     0.022110  p :     0.081141
      px      :     0.028173
      py      :     0.030858
 15 H s       :     0.898650  s :     0.898650
      pz      :     0.015670  p :     0.075857
      px      :     0.044108
      py      :     0.016079
 16 H s       :     0.905223  s :     0.905223
      pz      :     0.021580  p :     0.080768
      px      :     0.015933
      py      :     0.043255
 17 H s       :     0.840634  s :     0.840634
      pz      :     0.019019  p :     0.087071
      px      :     0.017159
      py      :     0.050892
 18 H s       :     0.877578  s :     0.877578
      pz      :     0.015420  p :     0.081503
      px      :     0.015996
      py      :     0.050087
 19 H s       :     0.884137  s :     0.884137
      pz      :     0.018113  p :     0.081750
      px      :     0.041122
      py      :     0.022515
 20 H s       :     0.856611  s :     0.856611
      pz      :     0.041833  p :     0.146405
      px      :     0.044204
      py      :     0.060368


                      *****************************
                      * MAYER POPULATION ANALYSIS *
                      *****************************

  NA   - Mulliken gross atomic population
  ZA   - Total nuclear charge
  QA   - Mulliken gross atomic charge
  VA   - Mayer's total valence
  BVA  - Mayer's bonded valence
  FA   - Mayer's free valence

  ATOM       NA         ZA         QA         VA         BVA        FA
  0 C      6.0017     6.0000    -0.0017     3.9560     3.9560     0.0000
  1 C      5.9557     6.0000     0.0443     3.9991     3.9991     0.0000
  2 C      5.9977     6.0000     0.0023     3.8701     3.8701     0.0000
  3 C      6.0149     6.0000    -0.0149     4.3485     4.3485     0.0000
  4 C      5.9472     6.0000     0.0528     3.8520     3.8520    -0.0000
  5 C      6.0640     6.0000    -0.0640     3.9905     3.9905    -0.0000
  6 C      5.9344     6.0000     0.0656     3.8483     3.8483     0.0000
  7 C      5.7668     6.0000     0.2332     3.8804     3.8804     0.0000
  8 C      5.9240     6.0000     0.0760     3.8048     3.8048    -0.0000
  9 C      6.0434     6.0000    -0.0434     3.9548     3.9548    -0.0000
 10 C      5.9062     6.0000     0.0938     3.9203     3.9203     0.0000
 11 N      7.0777     7.0000    -0.0777     3.4793     3.4793    -0.0000
 12 N      7.3383     7.0000    -0.3383     3.1194     3.1194     0.0000
 13 H      1.0622     1.0000    -0.0622     0.9722     0.9722     0.0000
 14 H      1.0515     1.0000    -0.0515     0.9698     0.9698     0.0000
 15 H      1.0366     1.0000    -0.0366     0.9686     0.9686     0.0000
 16 H      1.0591     1.0000    -0.0591     0.9792     0.9792     0.0000
 17 H      0.8755     1.0000     0.1245     0.9858     0.9858     0.0000
 18 H      0.9901     1.0000     0.0099     0.9920     0.9920    -0.0000
 19 H      0.9633     1.0000     0.0367     0.9853     0.9853     0.0000
 20 H      0.9897     1.0000     0.0103     1.0271     1.0271     0.0000

  Mayer bond orders larger than 0.100000
B(  0-C ,  1-C ) :   1.4516 B(  0-C ,  5-C ) :   1.3864 B(  0-C , 14-H ) :   0.9381 
B(  1-C ,  2-C ) :   1.4634 B(  1-C , 15-H ) :   0.9404 B(  2-C ,  3-C ) :   1.3192 
B(  2-C , 16-H ) :   0.9154 B(  3-C ,  4-C ) :   1.1773 B(  3-C , 12-N ) :   1.6440 
B(  4-C ,  5-C ) :   1.5082 B(  4-C ,  6-C ) :   1.0271 B(  5-C , 13-H ) :   0.9311 
B(  6-C ,  7-C ) :   1.2044 B(  6-C ,  9-C ) :   1.4826 B(  7-C ,  8-C ) :   1.5018 
B(  7-C , 11-N ) :   0.6952 B(  7-C , 12-N ) :   0.2852 B(  8-C ,  9-C ) :   0.1143 
B(  8-C , 10-C ) :   0.1407 B(  8-C , 11-N ) :   1.0940 B(  8-C , 17-H ) :   0.9125 
B(  9-C , 10-C ) :   1.2532 B(  9-C , 18-H ) :   0.9680 B( 10-C , 11-N ) :   1.5112 
B( 10-C , 19-H ) :   0.9569 B( 12-N , 20-H ) :   0.9418 

-------
TIMINGS
-------

Total SCF time: 0 days 0 hours 0 min 8 sec 

Total time                  ....       8.135 sec
Sum of individual times     ....       6.754 sec  ( 83.0%)

Fock matrix formation       ....       5.175 sec  ( 63.6%)
  Split-RI-J                ....       0.355 sec  (  6.9% of F)
  Chain of spheres X        ....       3.438 sec  ( 66.4% of F)
  XC integration            ....       1.326 sec  ( 25.6% of F)
    Basis function eval.    ....       0.022 sec  (  1.7% of XC)
    Density eval.           ....       0.024 sec  (  1.8% of XC)
    XC-Functional eval.     ....       0.008 sec  (  0.6% of XC)
    XC-Potential eval.      ....       0.012 sec  (  0.9% of XC)
Diagonalization             ....       0.016 sec  (  0.2%)
Density matrix formation    ....       0.012 sec  (  0.1%)
Population analysis         ....       0.030 sec  (  0.4%)
Initial guess               ....       0.020 sec  (  0.2%)
Orbital Transformation      ....       0.000 sec  (  0.0%)
Orbital Orthonormalization  ....       0.015 sec  (  0.2%)
DIIS solution               ....       0.008 sec  (  0.1%)
SOSCF solution              ....       0.037 sec  (  0.5%)
Grid generation             ....       1.456 sec  ( 17.9%)

Maximum memory used throughout the entire SCF-calculation: 66.6 MB


           ************************************************************
           *        Program running with 42 parallel MPI-processes    *
           *              working on a common directory               *
           ************************************************************
------------------------------------------------------------------------------
                        ORCA TD-DFT/TDA CALCULATION
------------------------------------------------------------------------------

Input orbitals are from        ... /gpfs/scratch/uam77/uam121718/12824459/engrad_0.gbw
CI-vector output               ... /gpfs/scratch/uam77/uam121718/12824459/engrad_0.cis
Tamm-Dancoff approximation     ... operative
CIS-Integral strategy          ... AO-integrals
Integral handling              ... AO integral Direct
Max. core memory used          ... 512 MB
Reference state                ... RHF
Generation of triplets         ... off
Follow IRoot                   ... off
Number of operators            ... 1
Orbital ranges used for CIS calculation:
 Operator 0:  Orbitals  13... 43  to  44...221
XAS localization array:
 Operator 0:  Orbitals  -1... -1

-------------------
XC-INTEGRATION GRID
-------------------

General Integration Accuracy     IntAcc      ... 3.467
Radial Grid Type                 RadialGrid  ... OptM3 with GC (2021)
Angular Grid (max. ang.)         AngularGrid ... 1 (Lebedev-50)
Angular grid pruning method      GridPruning ... 4 (adaptive)
Weight generation scheme         WeightScheme... Becke
Basis function cutoff            BFCut       ... 1.0000e-11
Integration weight cutoff        WCut        ... 1.0000e-14
Angular grids for H and He will be reduced by one unit
Partially contracted basis set               ... off
Rotationally invariant grid construction     ... off

Total number of grid points                  ...    15443
Total number of batches                      ...      250
Average number of points per batch           ...       61
Average number of grid points per atom       ...      735

---------------------
COSX-INTEGRATION GRID
---------------------

General Integration Accuracy     IntAcc      ... 3.067
Radial Grid Type                 RadialGrid  ... OptM3 with GC (2021)
Angular Grid (max. ang.)         AngularGrid ... 1 (Lebedev-50)
Angular grid pruning method      GridPruning ... 4 (adaptive)
Weight generation scheme         WeightScheme... Becke
Basis function cutoff            BFCut       ... 1.0000e-11
Integration weight cutoff        WCut        ... 1.0000e-14
Angular grids for H and He will be reduced by one unit
Partially contracted basis set               ... on
Rotationally invariant grid construction     ... off

Total number of grid points                  ...     7026
Total number of batches                      ...      124
Average number of points per batch           ...       56
Average number of grid points per atom       ...      335

---------------
TD-DFT XC SETUP
---------------

DFT calculation                         ... on
Name of the grid file                   ... /gpfs/scratch/uam77/uam121718/12824459/engrad_0.grid_cis.tmp
Exchange functional (TD-DFT)            ... WB88
Correlation functional (TD-DFT)         ... LYP
 LDA part of GGA corr.  LDAOpt (TD-DFT) ... VWN-5
Hybrid DFT                              ... on
   Exchange mixing (TD-DFT)             ...  0.190
   GGA exch. scaling (TD-DFT)           ...  0.350
   GGA corr. scaling (TD-DFT)           ...  0.810
Range-Separated Exchange                ... on
   Range Range separation parameter mu  .... 0.330
   Max. amount of RS exchange (TD-DFT)  ...  0.460

Building densities             ... done
Calculating rho(r) on the grid ... done
Building xc-kernel on the grid ... done
                    *** TD-DFT CALCULATION INITIALIZED ***

------------------------
DAVIDSON-DIAGONALIZATION
------------------------

Dimension of the eigenvalue problem            ...   5518
Number of roots to be determined               ...      3
Maximum size of the expansion space            ...     30
Maximum number of iterations                   ...    100
Convergence tolerance for the residual         ...    2.500e-07
Convergence tolerance for the energies         ...    2.500e-07
Orthogonality tolerance                        ...    1.000e-14
Level Shift                                    ...    0.000e+00
Constructing the preconditioner                ... o.k.
Building the initial guess                     ... o.k.
Number of trial vectors determined             ...     30


                       ****Iteration    0****

   Memory handling for direct AO based CIS:
   Memory per vector needed      ...     2 MB
   Memory needed                 ...    25 MB
   Memory available              ...   512 MB
   Number of vectors per batch   ...   181
   Number of batches             ...     1
   Time for densities:            0.011
   Time for RI-J (Direct):        0.185
   Time for K (COSX):             0.421
   Time for XC-Integration:       0.138
   Time for Sigma-Completion:     0.028
   Size of expansion space: 9
   Lowest Energy          :     0.003757199848
   Maximum Energy change  :     0.113590792659 (vector 2)
   Maximum residual norm  :     0.006829976978

                       ****Iteration    1****
   Time for densities:            0.004
   Time for RI-J (Direct):        0.092
   Time for K (COSX):             0.274
   Time for XC-Integration:       0.084
   Time for Sigma-Completion:     0.009
   Size of expansion space: 12
   Lowest Energy          :     0.001598133597
   Maximum Energy change  :     0.008045833258 (vector 2)
   Maximum residual norm  :     0.000407131993

                       ****Iteration    2****
   Time for densities:            0.004
   Time for RI-J (Direct):        0.074
   Time for K (COSX):             0.255
   Time for XC-Integration:       0.081
   Time for Sigma-Completion:     0.009
   Size of expansion space: 15
   Lowest Energy          :     0.001465747987
   Maximum Energy change  :     0.000811386358 (vector 2)
   Maximum residual norm  :     0.000075571569

                       ****Iteration    3****
   Time for densities:            0.003
   Time for RI-J (Direct):        0.073
   Time for K (COSX):             0.258
   Time for XC-Integration:       0.095
   Time for Sigma-Completion:     0.009
   Size of expansion space: 18
   Lowest Energy          :     0.001458996847
   Maximum Energy change  :     0.000170319783 (vector 2)
   Maximum residual norm  :     0.000021345477

                       ****Iteration    4****
   Time for densities:            0.003
   Time for RI-J (Direct):        0.085
   Time for K (COSX):             0.250
   Time for XC-Integration:       0.085
   Time for Sigma-Completion:     0.010
   Size of expansion space: 21
   Lowest Energy          :     0.001458243279
   Maximum Energy change  :     0.000049205048 (vector 2)
   Maximum residual norm  :     0.000009545549

                       ****Iteration    5****
   Time for densities:            0.003
   Time for RI-J (Direct):        0.076
   Time for K (COSX):             0.266
   Time for XC-Integration:       0.097
   Time for Sigma-Completion:     0.010
   Size of expansion space: 24
   Lowest Energy          :     0.001458205672
   Maximum Energy change  :     0.000017305064 (vector 2)
   Maximum residual norm  :     0.000002044650

                       ****Iteration    6****
   Time for densities:            0.003
   Time for RI-J (Direct):        0.107
   Time for K (COSX):             0.269
   Time for XC-Integration:       0.092
   Time for Sigma-Completion:     0.009
   Size of expansion space: 27
   Lowest Energy          :     0.001458201927
   Maximum Energy change  :     0.000003830825 (vector 2)
   Maximum residual norm  :     0.000000258248

                       ****Iteration    7****
   Time for densities:            0.004
   Time for RI-J (Direct):        0.098
   Time for K (COSX):             0.266
   Time for XC-Integration:       0.095
   Time for Sigma-Completion:     0.009
   Size of expansion space: 30
   Lowest Energy          :     0.001458201725
   Maximum Energy change  :     0.000000384095 (vector 2)
   Maximum residual norm  :     0.000000027515

      *** CONVERGENCE OF RESIDUAL NORM REACHED ***

Storing the converged CI vectors               ... /gpfs/scratch/uam77/uam121718/12824459/engrad_0.cis1

                 *** DAVIDSON DONE ***

Total time for solving the CIS problem:     4.079sec

------------------------------------
TD-DFT/TDA EXCITED STATES (SINGLETS)
------------------------------------

the weight of the individual excitations are printed if larger than 1.0e-02

STATE  1:  E=   0.001458 au      0.040 eV      320.0 cm**-1 <S**2> =   0.000000
    40a ->  44a  :     0.010825 (c=  0.10404165)
    43a ->  44a  :     0.978760 (c= -0.98932318)

STATE  2:  E=   0.059361 au      1.615 eV    13028.3 cm**-1 <S**2> =   0.000000
    41a ->  44a  :     0.096769 (c= -0.31107711)
    42a ->  44a  :     0.877558 (c= -0.93678047)

STATE  3:  E=   0.104493 au      2.843 eV    22933.5 cm**-1 <S**2> =   0.000000
    39a ->  44a  :     0.017225 (c= -0.13124588)
    41a ->  44a  :     0.340953 (c=  0.58391172)
    42a ->  44a  :     0.031349 (c= -0.17705579)
    43a ->  45a  :     0.560022 (c= -0.74834587)
    43a ->  46a  :     0.011330 (c= -0.10644331)


-----------------------------
TD-DFT/TDA-EXCITATION SPECTRA
-----------------------------

Center of mass = (  5.1603,  3.9520, -0.1688)
Calculating the Dipole integrals                  ... done
Transforming integrals                            ... done
Calculating the Linear Momentum integrals         ... done
Transforming integrals                            ... done
Calculating angular momentum integrals            ... done
Transforming integrals                            ... done

-----------------------------------------------------------------------------
         ABSORPTION SPECTRUM VIA TRANSITION ELECTRIC DIPOLE MOMENTS
-----------------------------------------------------------------------------
State   Energy    Wavelength  fosc         T2        TX        TY        TZ  
        (cm-1)      (nm)                 (au**2)    (au)      (au)      (au) 
-----------------------------------------------------------------------------
   1     320.0   31246.3   0.000092205   0.09485  -0.23656  -0.19677   0.01300
   2   13028.3    767.6   0.000799373   0.02020  -0.11931   0.05946  -0.04930
   3   22933.5    436.0   0.023617048   0.33902   0.50752   0.28104  -0.04965

-----------------------------------------------------------------------------
         ABSORPTION SPECTRUM VIA TRANSITION VELOCITY DIPOLE MOMENTS
-----------------------------------------------------------------------------
State   Energy    Wavelength   fosc        P2         PX        PY        PZ  
        (cm-1)      (nm)                 (au**2)     (au)      (au)      (au) 
-----------------------------------------------------------------------------
   1     320.0   31246.3   1.949696859   0.00426  -0.03410  -0.05537   0.00595
   2   13028.3    767.6   0.007181400   0.00064  -0.01485   0.01859  -0.00856
   3   22933.5    436.0   0.008856356   0.00139  -0.00855   0.03281  -0.01545

-------------------------------------------------------------------
                             CD SPECTRUM
-------------------------------------------------------------------
State  Energy     Wavelength     R         MX        MY        MZ   
       (cm-1)       (nm)     (1e40*cgs)   (au)      (au)      (au)  
-------------------------------------------------------------------
   1     320.0   31246.3     -0.81980   0.02275  -0.00900   0.14403
   2   13028.3    767.6      2.29026   0.05175   0.16795  -0.02123
   3   22933.5    436.0     -4.64547  -0.00277  -0.04129  -0.06363

-------------------------------------------------------------------
         CD SPECTRUM VIA TRANSITION VELOCITY DIPOLE MOMENTS        
-------------------------------------------------------------------
State  Energy     Wavelength     R         MX        MY        MZ   
       (cm-1)       (nm)     (1e40*cgs)   (au)      (au)      (au)  
-------------------------------------------------------------------
   1     320.0   31246.3    187.15338   0.02275  -0.00900   0.14403
   2   13028.3    767.6     20.13029   0.05175   0.16795  -0.02123
   3   22933.5    436.0     -1.57186  -0.00277  -0.04129  -0.06363

Total run time:        4.917 sec

           *** ORCA-CIS/TD-DFT FINISHED WITHOUT ERROR ***

Maximum memory used throughout the entire CIS-calculation: 57.8 MB

-------------------------   --------------------
FINAL SINGLE POINT ENERGY      -532.935809432546
-------------------------   --------------------



           ************************************************************
           *        Program running with 42 parallel MPI-processes    *
           *              working on a common directory               *
           ************************************************************
------------------------------------------------------------------------------
                         ORCA SCF GRADIENT CALCULATION
------------------------------------------------------------------------------

 ... reading COSX grid (gridx3)
Gradient of the Kohn-Sham DFT energy:
Kohn-Sham wavefunction type      ... RKS
Hartree-Fock exchange scaling    ...    0.190
Number of operators              ...    1
Number of atoms                  ...   21
Basis set dimensions             ...  222
Integral neglect threshold       ... 2.5e-11
Integral primitive cutoff        ... 2.5e-12
SHARK Integral package           ... ON

Nuc. rep. gradient       (SHARK) ... done (  0.0 sec)
HCore & Overlap gradient (SHARK) ... done (  0.0 sec)
RI-J gradient            (SHARK) ... done (  0.2 sec)
COSX-gradient                    ... done (  1.7 sec)
Exchange-correlation gradient    ... done

------------------
CARTESIAN GRADIENT
------------------

   1   C   :   -0.034994786   -0.036210261    0.002398343
   2   C   :   -0.019711730    0.037389665   -0.003193292
   3   C   :    0.036588131   -0.011842700    0.001117301
   4   C   :   -0.060236011    0.038118181    0.000255194
   5   C   :   -0.055115857    0.012448204    0.000215892
   6   C   :    0.040299485   -0.016691154   -0.000230615
   7   C   :    0.077918604   -0.034796752    0.004768224
   8   C   :    0.008039952    0.087169122   -0.038475436
   9   C   :    0.062161129   -0.079851844    0.061265288
  10   C   :   -0.020023056    0.010669794    0.002377657
  11   C   :    0.006340227   -0.012420266   -0.003781690
  12   N   :   -0.050297360    0.011337599   -0.008984558
  13   N   :    0.022244597   -0.000091224   -0.005676279
  14   H   :   -0.000037890   -0.001845924    0.000073635
  15   H   :   -0.004938320   -0.003251410    0.000636317
  16   H   :   -0.005830015   -0.001992224   -0.000333193
  17   H   :    0.001299329   -0.002568815    0.000717399
  18   H   :   -0.009287139   -0.006862878   -0.016233041
  19   H   :    0.006403722    0.002265558   -0.001098954
  20   H   :    0.002460355    0.005557399    0.001283944
  21   H   :   -0.003199669    0.003697987    0.002791506

Difference to translation invariance:
           :    0.0000836978    0.0002280567   -0.0001063575

Difference to rotation invariance:
           :   -0.0003819497    0.0011300603    0.0016079755

Norm of the cartesian gradient     ...    0.2259047079
RMS gradient                       ...    0.0284613180
MAX gradient                       ...    0.0871691224

-------
TIMINGS
-------

Total SCF gradient time            ...        3.302 sec

One electron gradient       ....       0.021 sec  (  0.6%)
RI-J Coulomb gradient       ....       0.156 sec  (  4.7%)
COSX gradient               ....       1.740 sec  ( 52.7%)
XC gradient                 ....       0.610 sec  ( 18.5%)

Maximum memory used throughout the entire SCFGRAD-calculation: 50.0 MB

                            ***************************************
                            *     ORCA property calculations      *
                            ***************************************

                                    ---------------------
                                    Active property flags
                                    ---------------------
   (+) Dipole Moment


------------------------------------------------------------------------------
                       ORCA ELECTRIC PROPERTIES CALCULATION
------------------------------------------------------------------------------

Dipole Moment Calculation                       ... on
Quadrupole Moment Calculation                   ... off
Polarizability Calculation                      ... off
GBWName                                         ... /gpfs/scratch/uam77/uam121718/12824459/engrad_0.gbw
Electron density                                ... /gpfs/scratch/uam77/uam121718/12824459/engrad_0.scfp
The origin for moment calculation is the CENTER OF MASS  = ( 5.160311,  3.951976 -0.168757)

-------------
DIPOLE MOMENT
-------------
                                X             Y             Z
Electronic contribution:      7.47684      -0.76235       0.31371
Nuclear contribution   :     -4.51407       1.05988      -0.31914
                        -----------------------------------------
Total Dipole Moment    :      2.96277       0.29753      -0.00543
                        -----------------------------------------
Magnitude (a.u.)       :      2.97767
Magnitude (Debye)      :      7.56865



--------------------
Rotational spectrum 
--------------------
 
Rotational constants in cm-1:     0.071537     0.018730     0.014862 
Rotational constants in MHz :  2144.639783   561.502635   445.537590 

 Dipole components along the rotational axes: 
x,y,z [a.u.] :     2.957455     0.346117    -0.014442 
x,y,z [Debye]:     7.517253     0.879760    -0.036708 

 

Timings for individual modules:

Sum of individual times         ...       30.656 sec (=   0.511 min)
GTO integral calculation        ...        3.730 sec (=   0.062 min)  12.2 %
SCF iterations                  ...       11.737 sec (=   0.196 min)  38.3 %
CIS module                      ...        8.346 sec (=   0.139 min)  27.2 %
SCF Gradient evaluation         ...        6.843 sec (=   0.114 min)  22.3 %
                             ****ORCA TERMINATED NORMALLY****
TOTAL RUN TIME: 0 days 0 hours 0 minutes 34 seconds 265 msec
