
                                 *****************
                                 * O   R   C   A *
                                 *****************

                                            #,                                       
                                            ###                                      
                                            ####                                     
                                            #####                                    
                                            ######                                   
                                           ########,                                 
                                     ,,################,,,,,                         
                               ,,#################################,,                 
                          ,,##########################################,,             
                       ,#########################################, ''#####,          
                    ,#############################################,,   '####,        
                  ,##################################################,,,,####,       
                ,###########''''           ''''###############################       
              ,#####''   ,,,,##########,,,,          '''####'''          '####       
            ,##' ,,,,###########################,,,                        '##       
           ' ,,###''''                  '''############,,,                           
         ,,##''                                '''############,,,,        ,,,,,,###''
      ,#''                                            '''#######################'''  
     '                                                          ''''####''''         
             ,#######,   #######,   ,#######,      ##                                
            ,#'     '#,  ##    ##  ,#'     '#,    #''#        ######   ,####,        
            ##       ##  ##   ,#'  ##            #'  '#       #        #'  '#        
            ##       ##  #######   ##           ,######,      #####,   #    #        
            '#,     ,#'  ##    ##  '#,     ,#' ,#      #,         ##   #,  ,#        
             '#######'   ##     ##  '#######'  #'      '#     #####' # '####'        



                  #######################################################
                  #                        -***-                        #
                  #          Department of theory and spectroscopy      #
                  #    Directorship and core code : Frank Neese         #
                  #        Max Planck Institute fuer Kohlenforschung    #
                  #                Kaiser Wilhelm Platz 1               #
                  #                 D-45470 Muelheim/Ruhr               #
                  #                      Germany                        #
                  #                                                     #
                  #                  All rights reserved                #
                  #                        -***-                        #
                  #######################################################


                         Program Version 5.0.3 -  RELEASE  -


 With contributions from (in alphabetic order):
   Daniel Aravena         : Magnetic Suceptibility
   Michael Atanasov       : Ab Initio Ligand Field Theory (pilot matlab implementation)
   Alexander A. Auer      : GIAO ZORA, VPT2 properties, NMR spectrum
   Ute Becker             : Parallelization
   Giovanni Bistoni       : ED, misc. LED, open-shell LED, HFLD
   Martin Brehm           : Molecular dynamics
   Dmytro Bykov           : SCF Hessian
   Vijay G. Chilkuri      : MRCI spin determinant printing, contributions to CSF-ICE
   Dipayan Datta          : RHF DLPNO-CCSD density
   Achintya Kumar Dutta   : EOM-CC, STEOM-CC
   Dmitry Ganyushin       : Spin-Orbit,Spin-Spin,Magnetic field MRCI
   Miquel Garcia          : C-PCM and meta-GGA Hessian, CC/C-PCM, Gaussian charge scheme
   Yang Guo               : DLPNO-NEVPT2, F12-NEVPT2, CIM, IAO-localization
   Andreas Hansen         : Spin unrestricted coupled pair/coupled cluster methods
   Benjamin Helmich-Paris : MC-RPA, TRAH-SCF, COSX integrals
   Lee Huntington         : MR-EOM, pCC
   Robert Izsak           : Overlap fitted RIJCOSX, COSX-SCS-MP3, EOM
   Marcus Kettner         : VPT2
   Christian Kollmar      : KDIIS, OOCD, Brueckner-CCSD(T), CCSD density, CASPT2, CASPT2-K
   Simone Kossmann        : Meta GGA functionals, TD-DFT gradient, OOMP2, MP2 Hessian
   Martin Krupicka        : Initial AUTO-CI
   Lucas Lang             : DCDCAS
   Marvin Lechner         : AUTO-CI (C++ implementation), FIC-MRCC
   Dagmar Lenk            : GEPOL surface, SMD
   Dimitrios Liakos       : Extrapolation schemes; Compound Job, initial MDCI parallelization
   Dimitrios Manganas     : Further ROCIS development; embedding schemes
   Dimitrios Pantazis     : SARC Basis sets
   Anastasios Papadopoulos: AUTO-CI, single reference methods and gradients
   Taras Petrenko         : DFT Hessian,TD-DFT gradient, ASA, ECA, R-Raman, ABS, FL, XAS/XES, NRVS
   Peter Pinski           : DLPNO-MP2, DLPNO-MP2 Gradient
   Christoph Reimann      : Effective Core Potentials
   Marius Retegan         : Local ZFS, SOC
   Christoph Riplinger    : Optimizer, TS searches, QM/MM, DLPNO-CCSD(T), (RO)-DLPNO pert. Triples
   Tobias Risthaus        : Range-separated hybrids, TD-DFT gradient, RPA, STAB
   Michael Roemelt        : Original ROCIS implementation
   Masaaki Saitow         : Open-shell DLPNO-CCSD energy and density
   Barbara Sandhoefer     : DKH picture change effects
   Avijit Sen             : IP-ROCIS
   Kantharuban Sivalingam : CASSCF convergence, NEVPT2, FIC-MRCI
   Bernardo de Souza      : ESD, SOC TD-DFT
   Georgi Stoychev        : AutoAux, RI-MP2 NMR, DLPNO-MP2 response
   Willem Van den Heuvel  : Paramagnetic NMR
   Boris Wezisla          : Elementary symmetry handling
   Frank Wennmohs         : Technical directorship


 We gratefully acknowledge several colleagues who have allowed us to
 interface, adapt or use parts of their codes:
   Stefan Grimme, W. Hujo, H. Kruse, P. Pracht,  : VdW corrections, initial TS optimization,
                  C. Bannwarth, S. Ehlert          DFT functionals, gCP, sTDA/sTD-DF
   Ed Valeev, F. Pavosevic, A. Kumar             : LibInt (2-el integral package), F12 methods
   Garnet Chan, S. Sharma, J. Yang, R. Olivares  : DMRG
   Ulf Ekstrom                                   : XCFun DFT Library
   Mihaly Kallay                                 : mrcc  (arbitrary order and MRCC methods)
   Jiri Pittner, Ondrej Demel                    : Mk-CCSD
   Frank Weinhold                                : gennbo (NPA and NBO analysis)
   Christopher J. Cramer and Donald G. Truhlar   : smd solvation model
   Lars Goerigk                                  : TD-DFT with DH, B97 family of functionals
   V. Asgeirsson, H. Jonsson                     : NEB implementation
   FAccTs GmbH                                   : IRC, NEB, NEB-TS, DLPNO-Multilevel, CI-OPT
                                                   MM, QMMM, 2- and 3-layer-ONIOM, Crystal-QMMM,
                                                   LR-CPCM, SF, NACMEs, symmetry and pop. for TD-DFT,
                                                   nearIR, NL-DFT gradient (VV10), updates on ESD,
                                                   ML-optimized integration grids
   S Lehtola, MJT Oliveira, MAL Marques          : LibXC Library
   Liviu Ungur et al                             : ANISO software


 Your calculation uses the libint2 library for the computation of 2-el integrals
 For citations please refer to: http://libint.valeyev.net

 Your ORCA version has been built with support for libXC version: 5.1.0
 For citations please refer to: https://tddft.org/programs/libxc/

 This ORCA versions uses:
   CBLAS   interface :  Fast vector & matrix operations
   LAPACKE interface :  Fast linear algebra routines
   SCALAPACK package :  Parallel linear algebra routines
   Shared memory     :  Shared parallel matrices
   BLAS/LAPACK       :  OpenBLAS 0.3.15  USE64BITINT DYNAMIC_ARCH NO_AFFINITY Prescott SINGLE_THREADED
        Core in use  :  Prescott
   Copyright (c) 2011-2014, The OpenBLAS Project


Your calculation utilizes the atom-pairwise dispersion correction
with the zero-damping scheme (D30)
Cite in your paper:
S.Grimme, J.Antony, S.Ehrlich and H.Krieg, J.Chem.Phys., 132, (2010), 154104 
   

XCFun DFT library Copyright 2009-2010 Ulf Ekstrom and contributors.
See http://admol.org/xcfun for more information.
This is free software; see the source code for copying conditions.
There is ABSOLUTELY NO WARRANTY; not even for MERCHANTABILITY or FITNESS FOR A PARTICULAR PURPOSE.
For details see the documentation.
Scientific users of this library should cite U. Ekstrom, L. Visscher, R. Bast, A. J. Thorvaldsen and K. Ruud;
J.Chem.Theor.Comp. 2010, DOI: 10.1021/ct100117s
XCFun Version 0.99 

================================================================================

----- Orbital basis set information -----
Your calculation utilizes the basis: cc-pVDZ 
       H, B-Ne : Obtained from the ccRepo (grant-hill.group.shef.ac.uk/ccrepo) Feb. 2017
                 T. H. Dunning, Jr., J. Chem. Phys. 90, 1007 (1989)
            He : Obtained from the ccRepo (grant-hill.group.shef.ac.uk/ccrepo) Feb. 2017
                 D. E. Woon, T. H. Dunning, Jr., J. Chem. Phys. 100, 2975 (1994)
  Li-Be, Na-Mg : Obtained from the ccRepo (grant-hill.group.shef.ac.uk/ccrepo) Feb. 2017
                 B. P. Prascher, D. E. Woon, K. A. Peterson, T. H. Dunning, Jr., A. K. Wilson, Theor. Chem. Acc. 128, 69 (2011)
         Al-Ar : Obtained from the ccRepo (grant-hill.group.shef.ac.uk/ccrepo) Feb. 2017
                 D. E. Woon, T. H. Dunning, Jr., J. Chem. Phys. 98, 1358 (1993)
            Ca : Obtained from the Peterson Research Group Website (tyr0.chem.wsu.edu/~kipeters) Feb. 2017
                 J. Koput, K. A. Peterson, J. Phys. Chem. 106, 9595 (2002)
         Sc-Zn : Obtained from the ccRepo (grant-hill.group.shef.ac.uk/ccrepo) Feb. 2017
                 N. B. Balabanov, K. A. Peterson, J. Chem. Phys. 123, 064107 (2005)
                 N. B. Balabanov, K. A. Peterson, J. Chem. Phys. 125, 074110 (2006)
         Ga-Kr : Obtained from the ccRepo (grant-hill.group.shef.ac.uk/ccrepo) Feb. 2017
                 A. K. Wilson, D. E. Woon, K. A. Peterson, T. H. Dunning, Jr., J. Chem. Phys. 110, 7667 (1999)

----- AuxJ basis set information -----
Your calculation utilizes the auxiliary basis: def2/J
   F. Weigend, Phys. Chem. Chem. Phys. 8, 1057 (2006).

================================================================================
                                        WARNINGS
                       Please study these warnings very carefully!
================================================================================

INFO   : Checking CIS options ...

WARNING: CIS/ROCIS methods need fully converged wavefunctions
  ===> : Setting SCFConvForced true
         You can overwrite this default with %scf ConvForced false 


INFO   : the flag for use of the SHARK integral package has been found!

================================================================================
                                       INPUT FILE
================================================================================
NAME = /gpfs/scratch/uam77/uam121718/4016736/engrad_18.in
|  1> ! wB97x-D3 cc-pvdz engrad 
|  2> 
|  3> %tddft
|  4>  nroots 10
|  5>  tda TRUE
|  6>  IRoot 1
|  7>  followiroot true
|  8> end
|  9> 
| 10> *xyz 0 1
| 11>  C     0.566775    -0.108103     0.741936
| 12>  C     0.483772     1.059655    -0.261848
| 13>  C    -0.682862     1.127775    -1.138099
| 14>  C    -0.768773     2.350371    -2.016056
| 15>  C    -1.473304     0.009609    -1.231372
| 16>  O    -2.572173    -0.117819    -2.007015
| 17>  C    -1.203359    -1.247367    -0.550821
| 18>  H    -1.829602    -2.104325    -0.792818
| 19>  C    -0.192291    -1.337906     0.322737
| 20>  O     0.114925    -2.480020     0.962006
| 21>  C    -0.004671     0.412973     2.065427
| 22>  H     0.586300     1.282614     2.382579
| 23>  H     0.042104    -0.366735     2.838736
| 24>  H    -1.051949     0.714788     1.927634
| 25>  O     1.355932     1.912865    -0.208552
| 26>  O     1.930018    -0.441584     1.027736
| 27>  H     0.166790     2.910413    -1.893757
| 28>  H    -1.594493     3.026855    -1.749311
| 29>  H    -0.869817     2.083586    -3.078361
| 30>  C    -3.425045     0.992081    -2.242163
| 31>  H    -4.410916     0.565271    -2.466287
| 32>  H    -3.095501     1.599076    -3.096654
| 33>  H    -3.499185     1.625573    -1.345012
| 34>  H     0.948164    -2.331052     1.432741
| 35>  C     2.714942    -0.701851    -0.062534
| 36>  O     2.254976    -0.907764    -1.153982
| 37>  C     4.174902    -0.657203     0.319962
| 38>  H     4.263073    -1.178266     1.289793
| 39>  C     4.552272     0.816529     0.536163
| 40>  C     5.027649    -1.371479    -0.729405
| 41>  H     4.619274    -2.383554    -0.885192
| 42>  C     6.502312    -1.464659    -0.352134
| 43>  H     4.907571    -0.852083    -1.693984
| 44>  H     6.637858    -1.968676     0.619032
| 45>  H     6.973190    -0.472732    -0.278133
| 46>  H     7.063087    -2.037791    -1.104789
| 47>  H     3.862888     1.292678     1.245564
| 48>  H     4.487167     1.373154    -0.411052
| 49>  H     5.575368     0.904053     0.927651
| 50> *
| 51> %pal nprocs 18 end
| 52> 
| 53>                          ****END OF INPUT****
================================================================================

                     *******************************
                     * Energy+Gradient Calculation *
                     *******************************

---------------------------------
CARTESIAN COORDINATES (ANGSTROEM)
---------------------------------
  C      0.566775   -0.108103    0.741936
  C      0.483772    1.059655   -0.261848
  C     -0.682862    1.127775   -1.138099
  C     -0.768773    2.350371   -2.016056
  C     -1.473304    0.009609   -1.231372
  O     -2.572173   -0.117819   -2.007015
  C     -1.203359   -1.247367   -0.550821
  H     -1.829602   -2.104325   -0.792818
  C     -0.192291   -1.337906    0.322737
  O      0.114925   -2.480020    0.962006
  C     -0.004671    0.412973    2.065427
  H      0.586300    1.282614    2.382579
  H      0.042104   -0.366735    2.838736
  H     -1.051949    0.714788    1.927634
  O      1.355932    1.912865   -0.208552
  O      1.930018   -0.441584    1.027736
  H      0.166790    2.910413   -1.893757
  H     -1.594493    3.026855   -1.749311
  H     -0.869817    2.083586   -3.078361
  C     -3.425045    0.992081   -2.242163
  H     -4.410916    0.565271   -2.466287
  H     -3.095501    1.599076   -3.096654
  H     -3.499185    1.625573   -1.345012
  H      0.948164   -2.331052    1.432741
  C      2.714942   -0.701851   -0.062534
  O      2.254976   -0.907764   -1.153982
  C      4.174902   -0.657203    0.319962
  H      4.263073   -1.178266    1.289793
  C      4.552272    0.816529    0.536163
  C      5.027649   -1.371479   -0.729405
  H      4.619274   -2.383554   -0.885192
  C      6.502312   -1.464659   -0.352134
  H      4.907571   -0.852083   -1.693984
  H      6.637858   -1.968676    0.619032
  H      6.973190   -0.472732   -0.278133
  H      7.063087   -2.037791   -1.104789
  H      3.862888    1.292678    1.245564
  H      4.487167    1.373154   -0.411052
  H      5.575368    0.904053    0.927651

----------------------------
CARTESIAN COORDINATES (A.U.)
----------------------------
  NO LB      ZA    FRAG     MASS         X           Y           Z
   0 C     6.0000    0    12.011    1.071050   -0.204285    1.402056
   1 C     6.0000    0    12.011    0.914197    2.002458   -0.494821
   2 C     6.0000    0    12.011   -1.290422    2.131186   -2.150695
   3 C     6.0000    0    12.011   -1.452770    4.441558   -3.809794
   4 C     6.0000    0    12.011   -2.784141    0.018158   -2.326956
   5 O     8.0000    0    15.999   -4.860703   -0.222646   -3.792709
   6 C     6.0000    0    12.011   -2.274019   -2.357182   -1.040901
   7 H     1.0000    0     1.008   -3.457447   -3.976598   -1.498209
   8 C     6.0000    0    12.011   -0.363377   -2.528276    0.609885
   9 O     8.0000    0    15.999    0.217177   -4.686559    1.817928
  10 C     6.0000    0    12.011   -0.008827    0.780406    3.903091
  11 H     1.0000    0     1.008    1.107946    2.423789    4.502422
  12 H     1.0000    0     1.008    0.079565   -0.693029    5.364434
  13 H     1.0000    0     1.008   -1.987896    1.350754    3.642700
  14 O     8.0000    0    15.999    2.562340    3.614791   -0.394106
  15 O     8.0000    0    15.999    3.647205   -0.834473    1.942140
  16 H     1.0000    0     1.008    0.315187    5.499884   -3.578682
  17 H     1.0000    0     1.008   -3.013155    5.719927   -3.305719
  18 H     1.0000    0     1.008   -1.643716    3.937407   -5.817259
  19 C     6.0000    0    12.011   -6.472397    1.874761   -4.237074
  20 H     1.0000    0     1.008   -8.335423    1.068207   -4.660607
  21 H     1.0000    0     1.008   -5.849649    3.021816   -5.851828
  22 H     1.0000    0     1.008   -6.612501    3.071888   -2.541704
  23 H     1.0000    0     1.008    1.791770   -4.405050    2.707488
  24 C     6.0000    0    12.011    5.130497   -1.326306   -0.118172
  25 O     8.0000    0    15.999    4.261287   -1.715425   -2.180710
  26 C     6.0000    0    12.011    7.889421   -1.241934    0.604641
  27 H     1.0000    0     1.008    8.056040   -2.226600    2.437356
  28 C     6.0000    0    12.011    8.602547    1.543016    1.013201
  29 C     6.0000    0    12.011    9.500880   -2.591720   -1.378376
  30 H     1.0000    0     1.008    8.729163   -4.504264   -1.672770
  31 C     6.0000    0    12.011   12.287589   -2.767804   -0.665437
  32 H     1.0000    0     1.008    9.273965   -1.610204   -3.201166
  33 H     1.0000    0     1.008   12.543734   -3.720258    1.169801
  34 H     1.0000    0     1.008   13.177419   -0.893334   -0.525595
  35 H     1.0000    0     1.008   13.347300   -3.850867   -2.087749
  36 H     1.0000    0     1.008    7.299800    2.442807    2.353775
  37 H     1.0000    0     1.008    8.479517    2.594885   -0.776776
  38 H     1.0000    0     1.008   10.535919    1.708413    1.753006

--------------------------------
INTERNAL COORDINATES (ANGSTROEM)
--------------------------------
 C      0   0   0     0.000000000000     0.00000000     0.00000000
 C      1   0   0     1.542118855092     0.00000000     0.00000000
 C      2   1   0     1.460647472649   117.95586214     0.00000000
 C      3   2   1     1.507624015790   115.63813217   175.04213564
 C      3   2   1     1.372513610661   117.56520548   345.65282792
 O      5   3   2     1.351063669038   125.75072854   181.30353481
 C      5   3   2     1.454650690442   124.42374296   357.96767203
 H      7   5   3     1.088632103523   117.99949422   187.36491612
 C      7   5   3     1.339238362096   120.24403154     5.94237299
 O      9   7   5     1.344422148736   122.69081324   181.14754483
 C      1   2   3     1.532872843967   106.53035592   265.19228345
 H     11   1   2     1.098229294285   108.53674206   301.36911219
 H     11   1   2     1.099153890668   110.51450385   181.14081229
 H     11   1   2     1.098576540054   109.90621875    60.93707331
 O      2   1   3     1.221257889766   117.52849197   175.29886274
 O      1   2   3     1.432243936768   110.94265907   151.24655497
 H      4   3   2     1.097215664368   107.48302452     6.66460052
 H      4   3   2     1.100271337299   113.58934281   248.00090436
 H      4   3   2     1.099943652732   111.77502549   125.06013666
 C      6   5   3     1.419353106273   120.66933865   325.86241277
 H     20   6   5     1.097424244364   105.63549784   205.57954278
 H     20   6   5     1.098725191775   112.37240396    86.84903673
 H     20   6   5     1.100767355287   110.82237336   323.79613667
 H     10   9   7     0.968540208959   107.27937193   171.94771329
 C     16   1   2     1.368405374867   115.54802876   306.21718906
 O     25  16   1     1.202176202322   122.44363060   345.40236813
 C     25  16   1     1.509893981550   110.31458496   164.23659493
 H     27  25  16     1.104469530486   106.59982635    42.43613181
 C     27  25  16     1.536566626321   107.54627931   286.79150643
 C     27  25  16     1.529228155271   110.58182049   161.66733948
 H     30  27  25     1.102422575793   108.61501533   306.95288330
 C     30  27  25     1.525007174872   113.45335696   184.68757203
 H     30  27  25     1.102090548975   108.64490502    61.33342439
 H     32  30  27     1.102528572855   111.39088897    56.81547799
 H     32  30  27     1.100509614776   112.04346931   296.38758651
 H     32  30  27     1.099744715411   110.83096390   176.54925025
 H     29  27  25     1.097824188319   110.65159752    52.99606270
 H     29  27  25     1.100584530091   110.45354011   294.15838752
 H     29  27  25     1.098930721172   110.80312678   173.58522022

---------------------------
INTERNAL COORDINATES (A.U.)
---------------------------
 C      0   0   0     0.000000000000     0.00000000     0.00000000
 C      1   0   0     2.914182302079     0.00000000     0.00000000
 C      2   1   0     2.760223701512   117.95586214     0.00000000
 C      3   2   1     2.848996502765   115.63813217   175.04213564
 C      3   2   1     2.593674839228   117.56520548   345.65282792
 O      5   3   2     2.553140323972   125.75072854   181.30353481
 C      5   3   2     2.748891425454   124.42374296   357.96767203
 H      7   5   3     2.057216536254   117.99949422   187.36491612
 C      7   5   3     2.530793732402   120.24403154     5.94237299
 O      9   7   5     2.540589669490   122.69081324   181.14754483
 C      1   2   3     2.896709873224   106.53035592   265.19228345
 H     11   1   2     2.075352598448   108.53674206   301.36911219
 H     11   1   2     2.077099832396   110.51450385   181.14081229
 H     11   1   2     2.076008797854   109.90621875    60.93707331
 O      2   1   3     2.307842950549   117.52849197   175.29886274
 O      1   2   3     2.706548797462   110.94265907   151.24655497
 H      4   3   2     2.073437115504   107.48302452     6.66460052
 H      4   3   2     2.079211500498   113.58934281   248.00090436
 H      4   3   2     2.078592266409   111.77502549   125.06013666
 C      6   5   3     2.682188658187   120.66933865   325.86241277
 H     20   6   5     2.073831274573   105.63549784   205.57954278
 H     20   6   5     2.076289708896   112.37240396    86.84903673
 H     20   6   5     2.080148838653   110.82237336   323.79613667
 H     10   9   7     1.830275744623   107.27937193   171.94771329
 C     16   1   2     2.585911398685   115.54802876   306.21718906
 O     25  16   1     2.271783787106   122.44363060   345.40236813
 C     25  16   1     2.853286116385   110.31458496   164.23659493
 H     27  25  16     2.087144935878   106.59982635    42.43613181
 C     27  25  16     2.903690110271   107.54627931   286.79150643
 C     27  25  16     2.889822409744   110.58182049   161.66733948
 H     30  27  25     2.083276752102   108.61501533   306.95288330
 C     30  27  25     2.881845912772   113.45335696   184.68757203
 H     30  27  25     2.082649312347   108.64490502    61.33342439
 H     32  30  27     2.083477057518   111.39088897    56.81547799
 H     32  30  27     2.079661779673   112.04346931   296.38758651
 H     32  30  27     2.078216329354   110.83096390   176.54925025
 H     29  27  25     2.074587059117   110.65159752    52.99606270
 H     29  27  25     2.079803349102   110.45354011   294.15838752
 H     29  27  25     2.076678103168   110.80312678   173.58522022

---------------------
BASIS SET INFORMATION
---------------------
There are 3 groups of distinct atoms

 Group   1 Type C   : 17s4p1d contracted to 3s2p1d pattern {881/31/1}
 Group   2 Type O   : 17s4p1d contracted to 3s2p1d pattern {881/31/1}
 Group   3 Type H   : 4s1p contracted to 2s1p pattern {31/1}

Atom   0C    basis set group =>   1
Atom   1C    basis set group =>   1
Atom   2C    basis set group =>   1
Atom   3C    basis set group =>   1
Atom   4C    basis set group =>   1
Atom   5O    basis set group =>   2
Atom   6C    basis set group =>   1
Atom   7H    basis set group =>   3
Atom   8C    basis set group =>   1
Atom   9O    basis set group =>   2
Atom  10C    basis set group =>   1
Atom  11H    basis set group =>   3
Atom  12H    basis set group =>   3
Atom  13H    basis set group =>   3
Atom  14O    basis set group =>   2
Atom  15O    basis set group =>   2
Atom  16H    basis set group =>   3
Atom  17H    basis set group =>   3
Atom  18H    basis set group =>   3
Atom  19C    basis set group =>   1
Atom  20H    basis set group =>   3
Atom  21H    basis set group =>   3
Atom  22H    basis set group =>   3
Atom  23H    basis set group =>   3
Atom  24C    basis set group =>   1
Atom  25O    basis set group =>   2
Atom  26C    basis set group =>   1
Atom  27H    basis set group =>   3
Atom  28C    basis set group =>   1
Atom  29C    basis set group =>   1
Atom  30H    basis set group =>   3
Atom  31C    basis set group =>   1
Atom  32H    basis set group =>   3
Atom  33H    basis set group =>   3
Atom  34H    basis set group =>   3
Atom  35H    basis set group =>   3
Atom  36H    basis set group =>   3
Atom  37H    basis set group =>   3
Atom  38H    basis set group =>   3
---------------------------------
AUXILIARY/J BASIS SET INFORMATION
---------------------------------
There are 3 groups of distinct atoms

 Group   1 Type C   : 12s5p4d2f1g contracted to 6s4p3d1f1g pattern {711111/2111/211/2/1}
 Group   2 Type O   : 12s5p4d2f1g contracted to 6s4p3d1f1g pattern {711111/2111/211/2/1}
 Group   3 Type H   : 5s2p1d contracted to 3s1p1d pattern {311/2/1}

Atom   0C    basis set group =>   1
Atom   1C    basis set group =>   1
Atom   2C    basis set group =>   1
Atom   3C    basis set group =>   1
Atom   4C    basis set group =>   1
Atom   5O    basis set group =>   2
Atom   6C    basis set group =>   1
Atom   7H    basis set group =>   3
Atom   8C    basis set group =>   1
Atom   9O    basis set group =>   2
Atom  10C    basis set group =>   1
Atom  11H    basis set group =>   3
Atom  12H    basis set group =>   3
Atom  13H    basis set group =>   3
Atom  14O    basis set group =>   2
Atom  15O    basis set group =>   2
Atom  16H    basis set group =>   3
Atom  17H    basis set group =>   3
Atom  18H    basis set group =>   3
Atom  19C    basis set group =>   1
Atom  20H    basis set group =>   3
Atom  21H    basis set group =>   3
Atom  22H    basis set group =>   3
Atom  23H    basis set group =>   3
Atom  24C    basis set group =>   1
Atom  25O    basis set group =>   2
Atom  26C    basis set group =>   1
Atom  27H    basis set group =>   3
Atom  28C    basis set group =>   1
Atom  29C    basis set group =>   1
Atom  30H    basis set group =>   3
Atom  31C    basis set group =>   1
Atom  32H    basis set group =>   3
Atom  33H    basis set group =>   3
Atom  34H    basis set group =>   3
Atom  35H    basis set group =>   3
Atom  36H    basis set group =>   3
Atom  37H    basis set group =>   3
Atom  38H    basis set group =>   3


           ************************************************************
           *        Program running with 18 parallel MPI-processes    *
           *              working on a common directory               *
           ************************************************************
------------------------------------------------------------------------------
                           ORCA GTO INTEGRAL CALCULATION
                           -- RI-GTO INTEGRALS CHOSEN --
------------------------------------------------------------------------------
------------------------------------------------------------------------------
                   ___                                                        
                  /   \      - P O W E R E D   B Y -                         
                 /     \                                                     
                 |  |  |   _    _      __       _____    __    __             
                 |  |  |  | |  | |    /  \     |  _  \  |  |  /  |          
                  \  \/   | |  | |   /    \    | | | |  |  | /  /          
                 / \  \   | |__| |  /  /\  \   | |_| |  |  |/  /          
                |  |  |   |  __  | /  /__\  \  |    /   |      \           
                |  |  |   | |  | | |   __   |  |    \   |  |\   \          
                \     /   | |  | | |  |  |  |  | |\  \  |  | \   \       
                 \___/    |_|  |_| |__|  |__|  |_| \__\ |__|  \__/        
                                                                              
                      - O R C A' S   B I G   F R I E N D -                    
                                      &                                       
                       - I N T E G R A L  F E E D E R -                       
                                                                              
 v1 FN, 2020, v2 2021                                                         
------------------------------------------------------------------------------


Reading SHARK input file /gpfs/scratch/uam77/uam121718/4016736/engrad_18.SHARKINP.tmp ... ok
----------------------
SHARK INTEGRAL PACKAGE
----------------------

Number of atoms                             ...     39
Number of basis functions                   ...    480
Number of shells                            ...    288
Maximum angular momentum                    ...      2
Integral batch strategy                     ... SHARK/LIBINT Hybrid
RI-J (if used) integral strategy            ... SPLIT-RIJ (Revised 2003 algorithm where possible)
Printlevel                                  ...      1
Contraction scheme used                     ... PARTIAL GENERAL contraction
Coulomb Range Separation                    ... NOT USED
Exchange Range Separation                   ... Long Range
   Mu parameter                             ...  0.250000
   Scaling (regular/separated)              ...  0.195728  0.804272
Finite Nucleus Model                        ... NOT USED
Auxiliary Coulomb fitting basis             ... AVAILABLE
   # of basis functions in Aux-J            ...   1151
   # of shells in Aux-J                     ...    385
   Maximum angular momentum in Aux-J        ...      4
Auxiliary J/K fitting basis                 ... NOT available
Auxiliary Correlation fitting basis         ... NOT available
Auxiliary 'external' fitting basis          ... NOT available
Integral threshold                          ...     2.500000e-11
Primitive cut-off                           ...     2.500000e-12
Primitive pair pre-selection threshold      ...     2.500000e-12

Calculating pre-screening integrals         ... done (  0.0 sec) Dimension = 288
Calculating pre-screening integrals (ORCA)  ... done (  0.1 sec) Dimension = 174
Organizing shell pair data                  ... done (  0.1 sec)
Shell pair information
Total number of shell pairs                 ...     41616
Shell pairs after pre-screening             ...     22355
Total number of primitive shell pairs       ...     67278
Primitive shell pairs kept                  ...     30448
          la=0 lb=0:   9872 shell pairs
          la=1 lb=0:   7780 shell pairs
          la=1 lb=1:   1306 shell pairs
          la=2 lb=0:   2421 shell pairs
          la=2 lb=1:    828 shell pairs
          la=2 lb=2:    148 shell pairs

Calculating one electron integrals          ... done (  0.0 sec)
Calculating RI/J V-Matrix + Cholesky decomp.... done (  0.1 sec)
Calculating Nuclear repulsion               ... done (  0.0 sec) ENN=   1572.233654917227 Eh

SHARK setup successfully completed in   0.5 seconds

Maximum memory used throughout the entire GTOINT-calculation: 32.4 MB


           ************************************************************
           *        Program running with 18 parallel MPI-processes    *
           *              working on a common directory               *
           ************************************************************
-------------------------------------------------------------------------------
                                 ORCA SCF
-------------------------------------------------------------------------------

------------
SCF SETTINGS
------------
Hamiltonian:
 Density Functional     Method          .... DFT(GTOs)
 Exchange Functional    Exchange        .... WB97X-D3
 Correlation Functional Correlation     .... WB97X-D3
 Gradients option       PostSCFGGA      .... off
 Hybrid DFT is turned on
   Fraction HF Exchange ScalHFX         ....  0.195728
   Scaling of DF-GGA-X  ScalDFX         ....  0.000000
   Scaling of DF-GGA-C  ScalDFC         ....  1.000000
   Scaling of DF-LDA-C  ScalLDAC        ....  1.000000
   Perturbative correction              ....  0.000000
   Density functional embedding theory  .... OFF
 Long-range corrected/Screened/Range-Separated Hybrid DFT is turned on
   Amount of maximum screened exact exchange              ....  0.804272
   Range separation parameter mu (erf(mu*r12)/r12)        ....  0.250000
 RI-approximation to the Coulomb term is turned on
   Number of AuxJ basis functions       .... 1151
   RIJ-COSX (HFX calculated with COS-X)).... on


General Settings:
 Integral files         IntName         .... /gpfs/scratch/uam77/uam121718/4016736/engrad_18
 Hartree-Fock type      HFTyp           .... RHF
 Total Charge           Charge          ....    0
 Multiplicity           Mult            ....    1
 Number of Electrons    NEL             ....  144
 Basis Dimension        Dim             ....  366
 Nuclear Repulsion      ENuc            ....   1572.2336549172 Eh

Convergence Acceleration:
 DIIS                   CNVDIIS         .... on
   Start iteration      DIISMaxIt       ....    12
   Startup error        DIISStart       ....  0.200000
   # of expansion vecs  DIISMaxEq       ....     5
   Bias factor          DIISBfac        ....   1.050
   Max. coefficient     DIISMaxC        ....  10.000
 Trust-Rad. Augm. Hess. CNVTRAH         .... auto
   Auto Start mean grad. ratio tolernc. ....  1.125000
   Auto Start start iteration           ....    20
   Auto Start num. interpolation iter.  ....    10
   Max. Number of Micro iterations      ....    16
   Max. Number of Macro iterations      .... Maxiter - #DIIS iter
   Number of Davidson start vectors     ....     2
   Converg. threshold I  (grad. norm)   ....   1.000e-05
   Converg. threshold II (energy diff.) ....   1.000e-08
   Grad. Scal. Fac. for Micro threshold ....   0.100
   Minimum threshold for Micro iter.    ....   0.010
   NR start threshold (gradient norm)   ....   0.001
   Initial trust radius                 ....   0.400
   Minimum AH scaling param. (alpha)    ....   1.000
   Maximum AH scaling param. (alpha)    .... 1000.000
   Orbital update algorithm             .... Taylor
   White noise on init. David. guess    .... on
   Maximum white noise                  ....   0.010
   Quad. conv. algorithm                .... NR
 SOSCF                  CNVSOSCF        .... on
   Start iteration      SOSCFMaxIt      ....   150
   Startup grad/error   SOSCFStart      ....  0.003300
 Level Shifting         CNVShift        .... on
   Level shift para.    LevelShift      ....    0.2500
   Turn off err/grad.   ShiftErr        ....    0.0010
 Zerner damping         CNVZerner       .... off
 Static damping         CNVDamp         .... on
   Fraction old density DampFac         ....    0.7000
   Max. Damping (<1)    DampMax         ....    0.9800
   Min. Damping (>=0)   DampMin         ....    0.0000
   Turn off err/grad.   DampErr         ....    0.1000
 Fernandez-Rico         CNVRico         .... off

SCF Procedure:
 Maximum # iterations   MaxIter         ....   125
 SCF integral mode      SCFMode         .... Direct
   Integral package                     .... SHARK and LIBINT hybrid scheme
 Reset frequency        DirectResetFreq ....    20
 Integral Threshold     Thresh          ....  2.500e-11 Eh
 Primitive CutOff       TCut            ....  2.500e-12 Eh

Convergence Tolerance:
 Convergence Check Mode ConvCheckMode   .... Total+1el-Energy
 Convergence forced     ConvForced      .... 1
 Energy Change          TolE            ....  1.000e-08 Eh
 1-El. energy change                    ....  1.000e-05 Eh
 Orbital Gradient       TolG            ....  1.000e-05
 Orbital Rotation angle TolX            ....  1.000e-05
 DIIS Error             TolErr          ....  5.000e-07


Diagonalization of the overlap matrix:
Smallest eigenvalue                        ... 4.132e-04
Time for diagonalization                   ...    0.023 sec
Threshold for overlap eigenvalues          ... 1.000e-08
Number of eigenvalues below threshold      ... 0
Time for construction of square roots      ...    0.032 sec
Total time needed                          ...    0.056 sec

Time for model grid setup =    0.170 sec

------------------------------
INITIAL GUESS: MODEL POTENTIAL
------------------------------
Loading Hartree-Fock densities                     ... done
Calculating cut-offs                               ... done
Initializing the effective Hamiltonian             ... done
Setting up the integral package (SHARK)            ... done
Starting the Coulomb interaction                   ... done (   0.1 sec)
Reading the grid                                   ... done
Mapping shells                                     ... done
Starting the XC term evaluation                    ... done (   0.1 sec)
  promolecular density results
     # of electrons  =    143.986820377
     EX              =   -118.301911013
     EC              =     -4.831888173
     EX+EC           =   -123.133799186
Transforming the Hamiltonian                       ... done (   0.0 sec)
Diagonalizing the Hamiltonian                      ... done (   0.0 sec)
Back transforming the eigenvectors                 ... done (   0.0 sec)
Now organizing SCF variables                       ... done
                      ------------------
                      INITIAL GUESS DONE (   0.5 sec)
                      ------------------
-------------------
DFT GRID GENERATION
-------------------

General Integration Accuracy     IntAcc      ... 4.388
Radial Grid Type                 RadialGrid  ... OptM3 with GC (2021)
Angular Grid (max. ang.)         AngularGrid ... 4 (Lebedev-302)
Angular grid pruning method      GridPruning ... 4 (adaptive)
Weight generation scheme         WeightScheme... Becke
Basis function cutoff            BFCut       ... 1.0000e-11
Integration weight cutoff        WCut        ... 1.0000e-14
Angular grids for H and He will be reduced by one unit
Partially contracted basis set               ... off
Rotationally invariant grid construction     ... off

Total number of grid points                  ...   177254
Total number of batches                      ...     2792
Average number of points per batch           ...       63
Average number of grid points per atom       ...     4545
Time for grid setup =    0.994 sec

--------------------
COSX GRID GENERATION
--------------------

GRIDX 1
-------
General Integration Accuracy     IntAcc      ... 3.816
Radial Grid Type                 RadialGrid  ... OptM3 with GC (2021)
Angular Grid (max. ang.)         AngularGrid ... 1 (Lebedev-50)
Angular grid pruning method      GridPruning ... 4 (adaptive)
Weight generation scheme         WeightScheme... Becke
Basis function cutoff            BFCut       ... 1.0000e-11
Integration weight cutoff        WCut        ... 1.0000e-14
Angular grids for H and He will be reduced by one unit
Partially contracted basis set               ... on
Rotationally invariant grid construction     ... off

Total number of grid points                  ...    22574
Total number of batches                      ...      377
Average number of points per batch           ...       59
Average number of grid points per atom       ...      579
UseSFitting                                  ... on

GRIDX 2
-------
General Integration Accuracy     IntAcc      ... 4.020
Radial Grid Type                 RadialGrid  ... OptM3 with GC (2021)
Angular Grid (max. ang.)         AngularGrid ... 2 (Lebedev-110)
Angular grid pruning method      GridPruning ... 4 (adaptive)
Weight generation scheme         WeightScheme... Becke
Basis function cutoff            BFCut       ... 1.0000e-11
Integration weight cutoff        WCut        ... 1.0000e-14
Angular grids for H and He will be reduced by one unit
Partially contracted basis set               ... on
Rotationally invariant grid construction     ... off

Total number of grid points                  ...    48089
Total number of batches                      ...      771
Average number of points per batch           ...       62
Average number of grid points per atom       ...     1233
UseSFitting                                  ... on

GRIDX 3
-------
General Integration Accuracy     IntAcc      ... 4.338
Radial Grid Type                 RadialGrid  ... OptM3 with GC (2021)
Angular Grid (max. ang.)         AngularGrid ... 3 (Lebedev-194)
Angular grid pruning method      GridPruning ... 4 (adaptive)
Weight generation scheme         WeightScheme... Becke
Basis function cutoff            BFCut       ... 1.0000e-11
Integration weight cutoff        WCut        ... 1.0000e-14
Angular grids for H and He will be reduced by one unit
Partially contracted basis set               ... on
Rotationally invariant grid construction     ... off

Total number of grid points                  ...   104904
Total number of batches                      ...     1658
Average number of points per batch           ...       63
Average number of grid points per atom       ...     2690
UseSFitting                                  ... on

Time for X-Grid setup             =    1.215 sec

 re-compute Schwartz prescreening matrix in partically contracted basis (1) ...done (   0.067 sec)
--------------
SCF ITERATIONS
--------------
ITER       Energy         Delta-E        Max-DP      RMS-DP      [F,P]     Damp
               ***  Starting incremental Fock matrix formation  ***
  0   -920.9500865979   0.000000000000 0.07479432  0.00127367  0.2410127 0.7000
  1   -921.1581292106  -0.208042612719 0.04713250  0.00090523  0.1131427 0.7000
                               ***Turning on DIIS***
  2   -921.2568675825  -0.098738371911 0.06879926  0.00164887  0.0501467 0.0000
  3   -921.4208033804  -0.163935797922 0.03455654  0.00061440  0.0556952 0.0000
  4   -921.4452144021  -0.024411021706 0.00837475  0.00014260  0.0105137 0.0000
  5   -921.4462710872  -0.001056685032 0.00369933  0.00007162  0.0058457 0.0000
                      *** Initiating the SOSCF procedure ***
                           *** Shutting down DIIS ***
                      *** Re-Reading the Fockian *** 
                      *** Removing any level shift *** 
ITER      Energy       Delta-E        Grad      Rot      Max-DP    RMS-DP
  6   -921.44648394  -0.0002128549  0.002305  0.002305  0.001624  0.000041
               *** Restarting incremental Fock matrix formation ***
  7   -921.44655626  -0.0000723222  0.001666  0.005352  0.001138  0.000036
  8   -921.44659357  -0.0000373018  0.000660  0.006606  0.001822  0.000051
  9   -921.44660531  -0.0000117434  0.000372  0.001066  0.000789  0.000013
 10   -921.44660975  -0.0000044415  0.000070  0.000155  0.000268  0.000005
 11   -921.44660989  -0.0000001371  0.000048  0.000093  0.000107  0.000002
 12   -921.44661009  -0.0000002041  0.000008  0.000047  0.000029  0.000001
 13   -921.44661010  -0.0000000038  0.000006  0.000009  0.000018  0.000000
                  ***Gradient check signals convergence***
              ***Rediagonalizing the Fockian in SOSCF/NRSCF***

               *****************************************************
               *                     SUCCESS                       *
               *           SCF CONVERGED AFTER  14 CYCLES          *
               *****************************************************

Old exchange energy                            =    -39.128880731 Eh
New exchange energy                            =    -39.128806583 Eh
Exchange energy change after final integration =      0.000074149 Eh
Total energy after final integration           =   -921.446535957 Eh
Final COS-X integration done in                =     7.414 sec

----------------
TOTAL SCF ENERGY
----------------

Total Energy       :         -921.44653596 Eh          -25073.83497 eV

Components:
Nuclear Repulsion  :         1572.23365492 Eh           42782.65278 eV
Electronic Energy  :        -2493.68019087 Eh          -67856.48775 eV
One Electron Energy:        -4379.72856601 Eh         -119178.47320 eV
Two Electron Energy:         1886.04837514 Eh           51321.98545 eV
Max COSX asymmetry :            0.00000291 Eh               0.00008 eV

Virial components:
Potential Energy   :        -1836.76153332 Eh          -49980.82230 eV
Kinetic Energy     :          915.31499736 Eh           24906.98733 eV
Virial Ratio       :            2.00669883


DFT components:
N(Alpha)           :       72.000066158208 electrons
N(Beta)            :       72.000066158208 electrons
N(Total)           :      144.000132316415 electrons
E(XC)              :      -87.153616561174 Eh       
DFET-embed. en.    :        0.000000000000 Eh       

---------------
SCF CONVERGENCE
---------------

  Last Energy change         ...   -9.6624e-09  Tolerance :   1.0000e-08
  Last MAX-Density change    ...    5.3291e-15  Tolerance :   1.0000e-07
  Last RMS-Density change    ...    3.9357e-17  Tolerance :   5.0000e-09
  Last Orbital Gradient      ...    1.8926e-06  Tolerance :   1.0000e-05
  Last Orbital Rotation      ...    6.0566e-06  Tolerance :   1.0000e-05

             **** THE GBW FILE WAS UPDATED (/gpfs/scratch/uam77/uam121718/4016736/engrad_18.gbw) ****
             **** DENSITY /gpfs/scratch/uam77/uam121718/4016736/engrad_18.scfp WAS UPDATED ****
             **** ENERGY FILE WAS UPDATED (/gpfs/scratch/uam77/uam121718/4016736/engrad_18.en.tmp) ****
             **** THE GBW FILE WAS UPDATED (/gpfs/scratch/uam77/uam121718/4016736/engrad_18.gbw) ****
             **** DENSITY /gpfs/scratch/uam77/uam121718/4016736/engrad_18.scfp WAS UPDATED ****
----------------
ORBITAL ENERGIES
----------------

  NO   OCC          E(Eh)            E(eV) 
   0   2.0000     -19.300794      -525.2013 
   1   2.0000     -19.294125      -525.0198 
   2   2.0000     -19.287126      -524.8294 
   3   2.0000     -19.242996      -523.6285 
   4   2.0000     -19.221468      -523.0427 
   5   2.0000     -10.422040      -283.5981 
   6   2.0000     -10.375111      -282.3211 
   7   2.0000     -10.373004      -282.2638 
   8   2.0000     -10.371968      -282.2356 
   9   2.0000     -10.369102      -282.1576 
  10   2.0000     -10.351155      -281.6692 
  11   2.0000     -10.308060      -280.4966 
  12   2.0000     -10.305576      -280.4290 
  13   2.0000     -10.288476      -279.9637 
  14   2.0000     -10.286000      -279.8963 
  15   2.0000     -10.284437      -279.8538 
  16   2.0000     -10.283908      -279.8394 
  17   2.0000     -10.283180      -279.8196 
  18   2.0000     -10.281275      -279.7677 
  19   2.0000      -1.240350       -33.7516 
  20   2.0000      -1.199830       -32.6490 
  21   2.0000      -1.198233       -32.6056 
  22   2.0000      -1.150877       -31.3170 
  23   2.0000      -1.139059       -30.9954 
  24   2.0000      -0.969482       -26.3809 
  25   2.0000      -0.937929       -25.5223 
  26   2.0000      -0.907820       -24.7030 
  27   2.0000      -0.880604       -23.9625 
  28   2.0000      -0.849771       -23.1234 
  29   2.0000      -0.844103       -22.9692 
  30   2.0000      -0.791224       -21.5303 
  31   2.0000      -0.784413       -21.3450 
  32   2.0000      -0.764878       -20.8134 
  33   2.0000      -0.739973       -20.1357 
  34   2.0000      -0.705135       -19.1877 
  35   2.0000      -0.697147       -18.9703 
  36   2.0000      -0.671954       -18.2848 
  37   2.0000      -0.663925       -18.0663 
  38   2.0000      -0.631807       -17.1923 
  39   2.0000      -0.615129       -16.7385 
  40   2.0000      -0.592205       -16.1147 
  41   2.0000      -0.582495       -15.8505 
  42   2.0000      -0.581553       -15.8249 
  43   2.0000      -0.570038       -15.5115 
  44   2.0000      -0.555462       -15.1149 
  45   2.0000      -0.549677       -14.9575 
  46   2.0000      -0.544950       -14.8288 
  47   2.0000      -0.537062       -14.6142 
  48   2.0000      -0.527236       -14.3468 
  49   2.0000      -0.520208       -14.1556 
  50   2.0000      -0.518595       -14.1117 
  51   2.0000      -0.508445       -13.8355 
  52   2.0000      -0.502654       -13.6779 
  53   2.0000      -0.496082       -13.4991 
  54   2.0000      -0.488890       -13.3034 
  55   2.0000      -0.484164       -13.1748 
  56   2.0000      -0.476555       -12.9677 
  57   2.0000      -0.474671       -12.9165 
  58   2.0000      -0.464896       -12.6505 
  59   2.0000      -0.461776       -12.5656 
  60   2.0000      -0.457755       -12.4562 
  61   2.0000      -0.452700       -12.3186 
  62   2.0000      -0.446542       -12.1510 
  63   2.0000      -0.435574       -11.8526 
  64   2.0000      -0.421891       -11.4802 
  65   2.0000      -0.419745       -11.4218 
  66   2.0000      -0.418724       -11.3941 
  67   2.0000      -0.410339       -11.1659 
  68   2.0000      -0.372960       -10.1488 
  69   2.0000      -0.352274        -9.5859 
  70   2.0000      -0.337759        -9.1909 
  71   2.0000      -0.288979        -7.8635 
  72   0.0000       0.022577         0.6144 
  73   0.0000       0.087380         2.3777 
  74   0.0000       0.115638         3.1467 
  75   0.0000       0.127982         3.4826 
  76   0.0000       0.144964         3.9447 
  77   0.0000       0.154484         4.2037 
  78   0.0000       0.160989         4.3807 
  79   0.0000       0.174779         4.7560 
  80   0.0000       0.186109         5.0643 
  81   0.0000       0.188719         5.1353 
  82   0.0000       0.192626         5.2416 
  83   0.0000       0.195508         5.3201 
  84   0.0000       0.199025         5.4157 
  85   0.0000       0.204400         5.5620 
  86   0.0000       0.209526         5.7015 
  87   0.0000       0.220566         6.0019 
  88   0.0000       0.225620         6.1394 
  89   0.0000       0.230008         6.2588 
  90   0.0000       0.234278         6.3750 
  91   0.0000       0.237335         6.4582 
  92   0.0000       0.239241         6.5101 
  93   0.0000       0.251846         6.8531 
  94   0.0000       0.259317         7.0564 
  95   0.0000       0.264251         7.1906 
  96   0.0000       0.270602         7.3634 
  97   0.0000       0.273852         7.4519 
  98   0.0000       0.288621         7.8538 
  99   0.0000       0.295187         8.0324 
 100   0.0000       0.301177         8.1954 
 101   0.0000       0.308719         8.4007 
 102   0.0000       0.321508         8.7487 
 103   0.0000       0.339283         9.2324 
 104   0.0000       0.344591         9.3768 
 105   0.0000       0.350546         9.5388 
 106   0.0000       0.363420         9.8892 
 107   0.0000       0.369284        10.0487 
 108   0.0000       0.399821        10.8797 
 109   0.0000       0.416930        11.3453 
 110   0.0000       0.441318        12.0089 
 111   0.0000       0.451006        12.2725 
 112   0.0000       0.474656        12.9160 
 113   0.0000       0.489430        13.3181 
 114   0.0000       0.492003        13.3881 
 115   0.0000       0.513255        13.9664 
 116   0.0000       0.519095        14.1253 
 117   0.0000       0.522418        14.2157 
 118   0.0000       0.529758        14.4154 
 119   0.0000       0.537896        14.6369 
 120   0.0000       0.542273        14.7560 
 121   0.0000       0.548463        14.9244 
 122   0.0000       0.557094        15.1593 
 123   0.0000       0.562515        15.3068 
 124   0.0000       0.570212        15.5163 
 125   0.0000       0.573567        15.6076 
 126   0.0000       0.588554        16.0154 
 127   0.0000       0.592732        16.1291 
 128   0.0000       0.613188        16.6857 
 129   0.0000       0.615316        16.7436 
 130   0.0000       0.621414        16.9095 
 131   0.0000       0.636502        17.3201 
 132   0.0000       0.645907        17.5760 
 133   0.0000       0.647619        17.6226 
 134   0.0000       0.661418        17.9981 
 135   0.0000       0.669000        18.2044 
 136   0.0000       0.680547        18.5186 
 137   0.0000       0.687389        18.7048 
 138   0.0000       0.690644        18.7934 
 139   0.0000       0.696048        18.9404 
 140   0.0000       0.707879        19.2624 
 141   0.0000       0.712574        19.3901 
 142   0.0000       0.716842        19.5063 
 143   0.0000       0.724583        19.7169 
 144   0.0000       0.729904        19.8617 
 145   0.0000       0.733059        19.9475 
 146   0.0000       0.735965        20.0266 
 147   0.0000       0.740070        20.1383 
 148   0.0000       0.742312        20.1993 
 149   0.0000       0.745745        20.2927 
 150   0.0000       0.747255        20.3338 
 151   0.0000       0.757109        20.6020 
 152   0.0000       0.760304        20.6889 
 153   0.0000       0.763109        20.7653 
 154   0.0000       0.767774        20.8922 
 155   0.0000       0.774677        21.0800 
 156   0.0000       0.774992        21.0886 
 157   0.0000       0.776298        21.1241 
 158   0.0000       0.782745        21.2996 
 159   0.0000       0.786012        21.3885 
 160   0.0000       0.792972        21.5779 
 161   0.0000       0.798758        21.7353 
 162   0.0000       0.804516        21.8920 
 163   0.0000       0.805169        21.9098 
 164   0.0000       0.817440        22.2437 
 165   0.0000       0.825001        22.4494 
 166   0.0000       0.843918        22.9642 
 167   0.0000       0.858135        23.3510 
 168   0.0000       0.862058        23.4578 
 169   0.0000       0.873576        23.7712 
 170   0.0000       0.885976        24.1086 
 171   0.0000       0.896881        24.4054 
 172   0.0000       0.903528        24.5863 
 173   0.0000       0.917343        24.9622 
 174   0.0000       0.926188        25.2029 
 175   0.0000       0.950146        25.8548 
 176   0.0000       0.963075        26.2066 
 177   0.0000       0.968250        26.3474 
 178   0.0000       0.973843        26.4996 
 179   0.0000       0.989608        26.9286 
 180   0.0000       0.995805        27.0972 
 181   0.0000       1.013154        27.5693 
 182   0.0000       1.014290        27.6002 
 183   0.0000       1.043635        28.3988 
 184   0.0000       1.062116        28.9017 
 185   0.0000       1.074681        29.2436 
 186   0.0000       1.102570        30.0024 
 187   0.0000       1.108530        30.1646 
 188   0.0000       1.121726        30.5237 
 189   0.0000       1.130622        30.7658 
 190   0.0000       1.133442        30.8425 
 191   0.0000       1.147216        31.2173 
 192   0.0000       1.171968        31.8909 
 193   0.0000       1.192809        32.4580 
 194   0.0000       1.195104        32.5204 
 195   0.0000       1.201683        32.6995 
 196   0.0000       1.222064        33.2541 
 197   0.0000       1.230376        33.4802 
 198   0.0000       1.232216        33.5303 
 199   0.0000       1.246856        33.9287 
 200   0.0000       1.269445        34.5434 
 201   0.0000       1.270921        34.5835 
 202   0.0000       1.289398        35.0863 
 203   0.0000       1.297187        35.2983 
 204   0.0000       1.300643        35.3923 
 205   0.0000       1.322149        35.9775 
 206   0.0000       1.336890        36.3786 
 207   0.0000       1.346319        36.6352 
 208   0.0000       1.349839        36.7310 
 209   0.0000       1.362368        37.0719 
 210   0.0000       1.368436        37.2370 
 211   0.0000       1.375859        37.4390 
 212   0.0000       1.402483        38.1635 
 213   0.0000       1.417149        38.5626 
 214   0.0000       1.423574        38.7374 
 215   0.0000       1.430952        38.9382 
 216   0.0000       1.446828        39.3702 
 217   0.0000       1.465396        39.8754 
 218   0.0000       1.482264        40.3345 
 219   0.0000       1.496606        40.7247 
 220   0.0000       1.500005        40.8172 
 221   0.0000       1.515232        41.2316 
 222   0.0000       1.522359        41.4255 
 223   0.0000       1.532181        41.6928 
 224   0.0000       1.537414        41.8352 
 225   0.0000       1.538845        41.8741 
 226   0.0000       1.542078        41.9621 
 227   0.0000       1.561764        42.4978 
 228   0.0000       1.581838        43.0440 
 229   0.0000       1.596372        43.4395 
 230   0.0000       1.604280        43.6547 
 231   0.0000       1.610257        43.8173 
 232   0.0000       1.615267        43.9536 
 233   0.0000       1.622077        44.1390 
 234   0.0000       1.638359        44.5820 
 235   0.0000       1.647352        44.8267 
 236   0.0000       1.670626        45.4601 
 237   0.0000       1.673685        45.5433 
 238   0.0000       1.680494        45.7286 
 239   0.0000       1.685716        45.8707 
 240   0.0000       1.697578        46.1935 
 241   0.0000       1.705338        46.4046 
 242   0.0000       1.710960        46.5576 
 243   0.0000       1.723661        46.9032 
 244   0.0000       1.732277        47.1377 
 245   0.0000       1.733541        47.1721 
 246   0.0000       1.741493        47.3884 
 247   0.0000       1.745752        47.5043 
 248   0.0000       1.753478        47.7146 
 249   0.0000       1.754766        47.7496 
 250   0.0000       1.767761        48.1032 
 251   0.0000       1.771145        48.1953 
 252   0.0000       1.772252        48.2254 
 253   0.0000       1.773747        48.2661 
 254   0.0000       1.781997        48.4906 
 255   0.0000       1.782940        48.5163 
 256   0.0000       1.793837        48.8128 
 257   0.0000       1.798615        48.9428 
 258   0.0000       1.811111        49.2828 
 259   0.0000       1.816561        49.4311 
 260   0.0000       1.823019        49.6069 
 261   0.0000       1.829790        49.7911 
 262   0.0000       1.839601        50.0581 
 263   0.0000       1.842198        50.1288 
 264   0.0000       1.854757        50.4705 
 265   0.0000       1.862921        50.6927 
 266   0.0000       1.874682        51.0127 
 267   0.0000       1.879084        51.1325 
 268   0.0000       1.881526        51.1989 
 269   0.0000       1.893300        51.5193 
 270   0.0000       1.909348        51.9560 
 271   0.0000       1.923059        52.3291 
 272   0.0000       1.940638        52.8074 
 273   0.0000       1.948003        53.0078 
 274   0.0000       1.951481        53.1025 
 275   0.0000       1.961449        53.3738 
 276   0.0000       1.970751        53.6269 
 277   0.0000       1.989213        54.1292 
 278   0.0000       2.003145        54.5083 
 279   0.0000       2.016195        54.8635 
 280   0.0000       2.023140        55.0524 
 281   0.0000       2.045261        55.6544 
 282   0.0000       2.050103        55.7861 
 283   0.0000       2.061359        56.0924 
 284   0.0000       2.071832        56.3774 
 285   0.0000       2.080887        56.6238 
 286   0.0000       2.100777        57.1650 
 287   0.0000       2.120193        57.6934 
 288   0.0000       2.127859        57.9020 
 289   0.0000       2.150526        58.5188 
 290   0.0000       2.152952        58.5848 
 291   0.0000       2.159870        58.7731 
 292   0.0000       2.167710        58.9864 
 293   0.0000       2.182260        59.3823 
 294   0.0000       2.191819        59.6424 
 295   0.0000       2.202877        59.9433 
 296   0.0000       2.209632        60.1271 
 297   0.0000       2.212102        60.1944 
 298   0.0000       2.216099        60.3031 
 299   0.0000       2.236422        60.8561 
 300   0.0000       2.247654        61.1618 
 301   0.0000       2.262085        61.5545 
 302   0.0000       2.279638        62.0321 
 303   0.0000       2.299505        62.5727 
 304   0.0000       2.301561        62.6287 
 305   0.0000       2.326823        63.3161 
 306   0.0000       2.335227        63.5448 
 307   0.0000       2.346065        63.8397 
 308   0.0000       2.351533        63.9885 
 309   0.0000       2.365775        64.3760 
 310   0.0000       2.377004        64.6816 
 311   0.0000       2.397428        65.2373 
 312   0.0000       2.410244        65.5861 
 313   0.0000       2.436838        66.3097 
 314   0.0000       2.456387        66.8417 
 315   0.0000       2.466501        67.1169 
 316   0.0000       2.498970        68.0004 
 317   0.0000       2.502886        68.1070 
 318   0.0000       2.515174        68.4414 
 319   0.0000       2.521691        68.6187 
 320   0.0000       2.540506        69.1307 
 321   0.0000       2.543926        69.2237 
 322   0.0000       2.553004        69.4708 
 323   0.0000       2.555060        69.5267 
 324   0.0000       2.565013        69.7976 
 325   0.0000       2.579231        70.1844 
 326   0.0000       2.596677        70.6592 
 327   0.0000       2.601867        70.8004 
 328   0.0000       2.604481        70.8715 
 329   0.0000       2.616638        71.2023 
 330   0.0000       2.624754        71.4232 
 331   0.0000       2.629975        71.5652 
 332   0.0000       2.642594        71.9087 
 333   0.0000       2.683246        73.0148 
 334   0.0000       2.689130        73.1750 
 335   0.0000       2.717923        73.9584 
 336   0.0000       2.745430        74.7070 
 337   0.0000       2.755336        74.9765 
 338   0.0000       2.765177        75.2443 
 339   0.0000       2.770244        75.3822 
 340   0.0000       2.816701        76.6463 
 341   0.0000       2.822829        76.8131 
 342   0.0000       2.848240        77.5046 
 343   0.0000       2.877281        78.2948 
 344   0.0000       2.967702        80.7553 
 345   0.0000       3.000706        81.6534 
 346   0.0000       3.015591        82.0584 
 347   0.0000       3.024731        82.3071 
 348   0.0000       3.056477        83.1710 
 349   0.0000       3.067515        83.4713 
 350   0.0000       3.124762        85.0291 
 351   0.0000       3.136515        85.3489 
 352   0.0000       3.175581        86.4120 
 353   0.0000       3.226441        87.7959 
 354   0.0000       3.258755        88.6752 
 355   0.0000       3.334834        90.7454 
 356   0.0000       3.357205        91.3542 
 357   0.0000       3.434503        93.4576 
 358   0.0000       3.483038        94.7783 
 359   0.0000       3.502462        95.3068 
 360   0.0000       3.511603        95.5556 
 361   0.0000       3.565763        97.0293 
 362   0.0000       3.596821        97.8745 
 363   0.0000       3.628164        98.7274 
 364   0.0000       3.711434       100.9932 
 365   0.0000       3.854474       104.8856 

                    ********************************
                    * MULLIKEN POPULATION ANALYSIS *
                    ********************************

-----------------------
MULLIKEN ATOMIC CHARGES
-----------------------
   0 C :   -0.104742
   1 C :    0.154542
   2 C :   -0.235526
   3 C :    0.012047
   4 C :    0.146643
   5 O :   -0.290361
   6 C :   -0.006120
   7 H :    0.016179
   8 C :    0.155706
   9 O :   -0.166558
  10 C :    0.060620
  11 H :    0.062923
  12 H :    0.038407
  13 H :    0.052458
  14 O :   -0.251678
  15 O :   -0.303237
  16 H :    0.056113
  17 H :    0.037198
  18 H :    0.052262
  19 C :    0.078370
  20 H :    0.060140
  21 H :    0.048018
  22 H :    0.048328
  23 H :    0.160561
  24 C :    0.265691
  25 O :   -0.222166
  26 C :   -0.175613
  27 H :    0.025467
  28 C :   -0.015124
  29 C :   -0.041774
  30 H :    0.031257
  31 C :   -0.053216
  32 H :    0.043101
  33 H :    0.032157
  34 H :    0.039416
  35 H :    0.040675
  36 H :    0.055009
  37 H :    0.054675
  38 H :    0.038150
Sum of atomic charges:   -0.0000000

--------------------------------
MULLIKEN REDUCED ORBITAL CHARGES
--------------------------------
  0 C s       :     3.160199  s :     3.160199
      pz      :     1.093044  p :     2.806053
      px      :     0.757608
      py      :     0.955401
      dz2     :     0.022819  d :     0.138490
      dxz     :     0.025497
      dyz     :     0.024965
      dx2y2   :     0.032801
      dxy     :     0.032407
  1 C s       :     3.134755  s :     3.134755
      pz      :     0.818241  p :     2.538258
      px      :     0.875187
      py      :     0.844831
      dz2     :     0.018740  d :     0.172445
      dxz     :     0.031960
      dyz     :     0.035258
      dx2y2   :     0.058255
      dxy     :     0.028232
  2 C s       :     3.146163  s :     3.146163
      pz      :     1.081635  p :     3.015172
      px      :     0.981136
      py      :     0.952400
      dz2     :     0.012043  d :     0.074191
      dxz     :     0.012031
      dyz     :     0.014572
      dx2y2   :     0.017464
      dxy     :     0.018080
  3 C s       :     2.960723  s :     2.960723
      pz      :     0.975316  p :     2.980688
      px      :     1.024266
      py      :     0.981106
      dz2     :     0.014411  d :     0.046541
      dxz     :     0.002936
      dyz     :     0.009857
      dx2y2   :     0.006317
      dxy     :     0.013021
  4 C s       :     3.137051  s :     3.137051
      pz      :     0.790365  p :     2.566473
      px      :     0.810218
      py      :     0.965890
      dz2     :     0.025608  d :     0.149833
      dxz     :     0.027954
      dyz     :     0.025049
      dx2y2   :     0.040506
      dxy     :     0.030717
  5 O s       :     3.739694  s :     3.739694
      pz      :     1.626131  p :     4.533463
      px      :     1.357259
      py      :     1.550073
      dz2     :     0.002772  d :     0.017203
      dxz     :     0.003744
      dyz     :     0.002458
      dx2y2   :     0.004160
      dxy     :     0.004069
  6 C s       :     3.076368  s :     3.076368
      pz      :     1.024631  p :     2.875787
      px      :     0.960841
      py      :     0.890315
      dz2     :     0.010801  d :     0.053966
      dxz     :     0.006561
      dyz     :     0.011496
      dx2y2   :     0.012013
      dxy     :     0.013094
  7 H s       :     0.953550  s :     0.953550
      pz      :     0.006593  p :     0.030272
      px      :     0.010440
      py      :     0.013239
  8 C s       :     3.114230  s :     3.114230
      pz      :     0.868778  p :     2.584270
      px      :     0.966590
      py      :     0.748902
      dz2     :     0.032779  d :     0.145794
      dxz     :     0.014043
      dyz     :     0.035594
      dx2y2   :     0.029398
      dxy     :     0.033980
  9 O s       :     3.677277  s :     3.677277
      pz      :     1.567056  p :     4.473781
      px      :     1.399638
      py      :     1.507088
      dz2     :     0.001639  d :     0.015499
      dxz     :     0.002000
      dyz     :     0.003833
      dx2y2   :     0.005218
      dxy     :     0.002809
 10 C s       :     3.002479  s :     3.002479
      pz      :     0.905540  p :     2.894113
      px      :     0.994418
      py      :     0.994155
      dz2     :     0.009921  d :     0.042788
      dxz     :     0.005955
      dyz     :     0.013881
      dx2y2   :     0.006949
      dxy     :     0.006082
 11 H s       :     0.908050  s :     0.908050
      pz      :     0.005673  p :     0.029026
      px      :     0.009535
      py      :     0.013818
 12 H s       :     0.932661  s :     0.932661
      pz      :     0.011219  p :     0.028932
      px      :     0.006166
      py      :     0.011547
 13 H s       :     0.918463  s :     0.918463
      pz      :     0.004940  p :     0.029079
      px      :     0.017213
      py      :     0.006926
 14 O s       :     3.740909  s :     3.740909
      pz      :     1.567240  p :     4.492619
      px      :     1.450909
      py      :     1.474470
      dz2     :     0.002142  d :     0.018150
      dxz     :     0.002417
      dyz     :     0.002445
      dx2y2   :     0.004750
      dxy     :     0.006397
 15 O s       :     3.770363  s :     3.770363
      pz      :     1.550034  p :     4.516737
      px      :     1.248881
      py      :     1.717822
      dz2     :     0.003844  d :     0.016137
      dxz     :     0.005209
      dyz     :     0.002376
      dx2y2   :     0.002868
      dxy     :     0.001841
 16 H s       :     0.913259  s :     0.913259
      pz      :     0.006222  p :     0.030628
      px      :     0.016116
      py      :     0.008290
 17 H s       :     0.933816  s :     0.933816
      pz      :     0.006305  p :     0.028987
      px      :     0.012831
      py      :     0.009850
 18 H s       :     0.918883  s :     0.918883
      pz      :     0.016556  p :     0.028855
      px      :     0.006571
      py      :     0.005727
 19 C s       :     3.055836  s :     3.055836
      pz      :     1.023339  p :     2.779391
      px      :     0.914067
      py      :     0.841985
      dz2     :     0.011933  d :     0.086404
      dxz     :     0.008555
      dyz     :     0.022073
      dx2y2   :     0.019798
      dxy     :     0.024044
 20 H s       :     0.913075  s :     0.913075
      pz      :     0.006783  p :     0.026786
      px      :     0.014547
      py      :     0.005456
 21 H s       :     0.923744  s :     0.923744
      pz      :     0.013636  p :     0.028238
      px      :     0.005882
      py      :     0.008720
 22 H s       :     0.923603  s :     0.923603
      pz      :     0.014240  p :     0.028069
      px      :     0.004782
      py      :     0.009047
 23 H s       :     0.755832  s :     0.755832
      pz      :     0.026566  p :     0.083607
      px      :     0.040114
      py      :     0.016927
 24 C s       :     3.059327  s :     3.059327
      pz      :     0.800700  p :     2.441025
      px      :     0.878713
      py      :     0.761612
      dz2     :     0.062271  d :     0.233958
      dxz     :     0.082319
      dyz     :     0.048727
      dx2y2   :     0.019659
      dxy     :     0.020981
 25 O s       :     3.738185  s :     3.738185
      pz      :     1.405999  p :     4.464372
      px      :     1.686223
      py      :     1.372149
      dz2     :     0.007062  d :     0.019609
      dxz     :     0.005339
      dyz     :     0.005378
      dx2y2   :     0.000788
      dxy     :     0.001041
 26 C s       :     3.151529  s :     3.151529
      pz      :     0.998861  p :     2.940207
      px      :     0.919602
      py      :     1.021744
      dz2     :     0.016757  d :     0.083878
      dxz     :     0.010490
      dyz     :     0.019100
      dx2y2   :     0.023907
      dxy     :     0.013623
 27 H s       :     0.948047  s :     0.948047
      pz      :     0.014842  p :     0.026486
      px      :     0.004475
      py      :     0.007169
 28 C s       :     3.031006  s :     3.031006
      pz      :     1.021896  p :     2.938557
      px      :     0.994306
      py      :     0.922356
      dz2     :     0.006076  d :     0.045560
      dxz     :     0.006465
      dyz     :     0.013123
      dx2y2   :     0.012414
      dxy     :     0.007482
 29 C s       :     3.072679  s :     3.072679
      pz      :     0.985830  p :     2.901098
      px      :     0.945367
      py      :     0.969901
      dz2     :     0.014467  d :     0.067997
      dxz     :     0.014343
      dyz     :     0.010381
      dx2y2   :     0.014736
      dxy     :     0.014070
 30 H s       :     0.941495  s :     0.941495
      pz      :     0.005797  p :     0.027247
      px      :     0.006069
      py      :     0.015381
 31 C s       :     3.031011  s :     3.031011
      pz      :     0.992896  p :     2.974265
      px      :     0.972488
      py      :     1.008881
      dz2     :     0.008601  d :     0.047940
      dxz     :     0.010176
      dyz     :     0.007185
      dx2y2   :     0.009063
      dxy     :     0.012915
 32 H s       :     0.929641  s :     0.929641
      pz      :     0.014461  p :     0.027258
      px      :     0.004618
      py      :     0.008178
 33 H s       :     0.939551  s :     0.939551
      pz      :     0.014716  p :     0.028292
      px      :     0.005037
      py      :     0.008539
 34 H s       :     0.931867  s :     0.931867
      pz      :     0.006283  p :     0.028717
      px      :     0.007115
      py      :     0.015319
 35 H s       :     0.930808  s :     0.930808
      pz      :     0.011194  p :     0.028517
      px      :     0.008064
      py      :     0.009259
 36 H s       :     0.915809  s :     0.915809
      pz      :     0.010718  p :     0.029182
      px      :     0.011246
      py      :     0.007218
 37 H s       :     0.916958  s :     0.916958
      pz      :     0.014471  p :     0.028366
      px      :     0.006006
      py      :     0.007889
 38 H s       :     0.932903  s :     0.932903
      pz      :     0.007703  p :     0.028947
      px      :     0.016256
      py      :     0.004988


                     *******************************
                     * LOEWDIN POPULATION ANALYSIS *
                     *******************************

----------------------
LOEWDIN ATOMIC CHARGES
----------------------
   0 C :   -0.069118
   1 C :   -0.061113
   2 C :   -0.145772
   3 C :   -0.067102
   4 C :   -0.008647
   5 O :    0.082033
   6 C :   -0.095508
   7 H :    0.038738
   8 C :   -0.028666
   9 O :    0.097176
  10 C :   -0.038930
  11 H :    0.042281
  12 H :    0.031861
  13 H :    0.041768
  14 O :   -0.053417
  15 O :    0.076739
  16 H :    0.041663
  17 H :    0.029689
  18 H :    0.033968
  19 C :   -0.011901
  20 H :    0.034338
  21 H :    0.024072
  22 H :    0.025212
  23 H :    0.055611
  24 C :   -0.111930
  25 O :   -0.013527
  26 C :   -0.070634
  27 H :    0.037248
  28 C :   -0.053771
  29 C :   -0.046654
  30 H :    0.032333
  31 C :   -0.075226
  32 H :    0.034495
  33 H :    0.027888
  34 H :    0.028416
  35 H :    0.034319
  36 H :    0.035260
  37 H :    0.037383
  38 H :    0.029426

-------------------------------
LOEWDIN REDUCED ORBITAL CHARGES
-------------------------------
  0 C s       :     2.809420  s :     2.809420
      pz      :     1.054790  p :     2.915711
      px      :     0.830935
      py      :     1.029986
      dz2     :     0.055605  d :     0.343987
      dxz     :     0.058149
      dyz     :     0.068467
      dx2y2   :     0.081602
      dxy     :     0.080165
  1 C s       :     2.840696  s :     2.840696
      pz      :     0.878741  p :     2.785929
      px      :     0.966013
      py      :     0.941175
      dz2     :     0.049008  d :     0.434488
      dxz     :     0.078717
      dyz     :     0.085989
      dx2y2   :     0.139731
      dxy     :     0.081044
  2 C s       :     2.811501  s :     2.811501
      pz      :     1.047682  p :     3.112957
      px      :     1.030396
      py      :     1.034878
      dz2     :     0.031658  d :     0.221314
      dxz     :     0.040051
      dyz     :     0.040277
      dx2y2   :     0.053503
      dxy     :     0.055825
  3 C s       :     2.788050  s :     2.788050
      pz      :     1.035356  p :     3.129968
      px      :     1.070762
      py      :     1.023850
      dz2     :     0.048207  d :     0.149084
      dxz     :     0.007913
      dyz     :     0.029990
      dx2y2   :     0.018492
      dxy     :     0.044482
  4 C s       :     2.814897  s :     2.814897
      pz      :     0.861371  p :     2.814675
      px      :     0.887805
      py      :     1.065500
      dz2     :     0.059867  d :     0.379075
      dxz     :     0.070320
      dyz     :     0.064450
      dx2y2   :     0.101780
      dxy     :     0.082658
  5 O s       :     3.360714  s :     3.360714
      pz      :     1.601119  p :     4.524596
      px      :     1.378377
      py      :     1.545101
      dz2     :     0.004369  d :     0.032657
      dxz     :     0.007912
      dyz     :     0.003877
      dx2y2   :     0.007970
      dxy     :     0.008527
  6 C s       :     2.808912  s :     2.808912
      pz      :     1.046717  p :     3.105393
      px      :     1.056423
      py      :     1.002253
      dz2     :     0.028082  d :     0.181204
      dxz     :     0.031503
      dyz     :     0.037626
      dx2y2   :     0.038947
      dxy     :     0.045045
  7 H s       :     0.876382  s :     0.876382
      pz      :     0.019739  p :     0.084880
      px      :     0.028406
      py      :     0.036735
  8 C s       :     2.815537  s :     2.815537
      pz      :     0.937618  p :     2.844026
      px      :     1.004497
      py      :     0.901912
      dz2     :     0.078306  d :     0.369103
      dxz     :     0.039642
      dyz     :     0.087920
      dx2y2   :     0.077997
      dxy     :     0.085237
  9 O s       :     3.352205  s :     3.352205
      pz      :     1.548455  p :     4.520827
      px      :     1.446026
      py      :     1.526346
      dz2     :     0.002761  d :     0.029792
      dxz     :     0.005427
      dyz     :     0.006520
      dx2y2   :     0.010551
      dxy     :     0.004533
 10 C s       :     2.800926  s :     2.800926
      pz      :     0.985882  p :     3.095823
      px      :     1.057309
      py      :     1.052633
      dz2     :     0.032696  d :     0.142181
      dxz     :     0.017957
      dyz     :     0.044954
      dx2y2   :     0.024305
      dxy     :     0.022270
 11 H s       :     0.877800  s :     0.877800
      pz      :     0.017730  p :     0.079918
      px      :     0.025286
      py      :     0.036902
 12 H s       :     0.888896  s :     0.888896
      pz      :     0.031693  p :     0.079243
      px      :     0.016206
      py      :     0.031344
 13 H s       :     0.879098  s :     0.879098
      pz      :     0.015850  p :     0.079133
      px      :     0.044838
      py      :     0.018445
 14 O s       :     3.484909  s :     3.484909
      pz      :     1.534668  p :     4.537029
      px      :     1.491766
      py      :     1.510596
      dz2     :     0.004459  d :     0.031479
      dxz     :     0.003409
      dyz     :     0.003439
      dx2y2   :     0.006818
      dxy     :     0.013354
 15 O s       :     3.385024  s :     3.385024
      pz      :     1.562215  p :     4.506604
      px      :     1.287300
      py      :     1.657089
      dz2     :     0.006790  d :     0.031633
      dxz     :     0.011447
      dyz     :     0.003133
      dx2y2   :     0.006177
      dxy     :     0.004085
 16 H s       :     0.874442  s :     0.874442
      pz      :     0.017389  p :     0.083895
      px      :     0.043301
      py      :     0.023205
 17 H s       :     0.891497  s :     0.891497
      pz      :     0.017843  p :     0.078813
      px      :     0.033216
      py      :     0.027754
 18 H s       :     0.887248  s :     0.887248
      pz      :     0.043746  p :     0.078784
      px      :     0.017161
      py      :     0.017877
 19 C s       :     2.822276  s :     2.822276
      pz      :     1.075200  p :     2.955664
      px      :     0.962653
      py      :     0.917810
      dz2     :     0.032557  d :     0.233961
      dxz     :     0.019328
      dyz     :     0.070376
      dx2y2   :     0.051480
      dxy     :     0.060220
 20 H s       :     0.890188  s :     0.890188
      pz      :     0.017448  p :     0.075473
      px      :     0.041296
      py      :     0.016730
 21 H s       :     0.897442  s :     0.897442
      pz      :     0.037313  p :     0.078486
      px      :     0.016646
      py      :     0.024527
[...]
      pz      :     0.010808  p :     0.029154
      px      :     0.011133
      py      :     0.007213
 37 H s       :     0.918356  s :     0.918356
      pz      :     0.014481  p :     0.028346
      px      :     0.005995
      py      :     0.007871
 38 H s       :     0.932030  s :     0.932030
      pz      :     0.007686  p :     0.028942
      px      :     0.016272
      py      :     0.004984


                     *******************************
                     * LOEWDIN POPULATION ANALYSIS *
                     *******************************

----------------------
LOEWDIN ATOMIC CHARGES
----------------------
   0 C :   -0.065412
   1 C :   -0.134611
   2 C :   -0.090122
   3 C :   -0.058519
   4 C :   -0.080469
   5 O :    0.070976
   6 C :   -0.039739
   7 H :    0.042940
   8 C :   -0.039329
   9 O :    0.103553
  10 C :   -0.047784
  11 H :    0.038132
  12 H :    0.027588
  13 H :    0.038819
  14 O :    0.016247
  15 O :    0.070658
  16 H :    0.041733
  17 H :    0.034891
  18 H :    0.042616
  19 C :   -0.017800
  20 H :    0.032147
  21 H :    0.019717
  22 H :    0.019066
  23 H :    0.057386
  24 C :   -0.117821
  25 O :   -0.012592
  26 C :   -0.070656
  27 H :    0.037256
  28 C :   -0.055012
  29 C :   -0.046639
  30 H :    0.032430
  31 C :   -0.075317
  32 H :    0.034352
  33 H :    0.027910
  34 H :    0.028256
  35 H :    0.034353
  36 H :    0.034681
  37 H :    0.036454
  38 H :    0.029661

-------------------------------
LOEWDIN REDUCED ORBITAL CHARGES
-------------------------------
  0 C s       :     2.810164  s :     2.810164
      pz      :     1.038332  p :     2.886742
      px      :     0.841452
      py      :     1.006958
      dz2     :     0.074096  d :     0.368505
      dxz     :     0.061145
      dyz     :     0.072225
      dx2y2   :     0.081294
      dxy     :     0.079745
  1 C s       :     2.829519  s :     2.829519
      pz      :     0.973851  p :     2.896840
      px      :     0.987369
      py      :     0.935619
      dz2     :     0.049530  d :     0.408252
      dxz     :     0.079535
      dyz     :     0.082625
      dx2y2   :     0.114027
      dxy     :     0.082536
  2 C s       :     2.814661  s :     2.814661
      pz      :     0.953919  p :     3.036419
      px      :     1.051671
      py      :     1.030830
      dz2     :     0.037793  d :     0.239041
      dxz     :     0.042263
      dyz     :     0.045295
      dx2y2   :     0.059694
      dxy     :     0.053995
  3 C s       :     2.789409  s :     2.789409
      pz      :     1.031468  p :     3.120750
      px      :     1.066337
      py      :     1.022945
      dz2     :     0.045533  d :     0.148360
      dxz     :     0.008049
      dyz     :     0.029924
      dx2y2   :     0.018564
      dxy     :     0.046291
  4 C s       :     2.802982  s :     2.802982
      pz      :     0.930329  p :     2.908479
      px      :     0.918660
      py      :     1.059490
      dz2     :     0.060205  d :     0.369008
      dxz     :     0.066318
      dyz     :     0.059537
      dx2y2   :     0.100781
      dxy     :     0.082166
  5 O s       :     3.359314  s :     3.359314
      pz      :     1.621340  p :     4.536027
      px      :     1.375857
      py      :     1.538831
      dz2     :     0.005288  d :     0.033683
      dxz     :     0.007788
      dyz     :     0.003840
      dx2y2   :     0.008007
      dxy     :     0.008760
  6 C s       :     2.815160  s :     2.815160
      pz      :     1.001877  p :     3.031094
      px      :     1.020271
      py      :     1.008946
      dz2     :     0.038916  d :     0.193485
      dxz     :     0.032084
      dyz     :     0.036734
      dx2y2   :     0.038275
      dxy     :     0.047476
  7 H s       :     0.873238  s :     0.873238
      pz      :     0.018892  p :     0.083823
      px      :     0.028008
      py      :     0.036922
  8 C s       :     2.812438  s :     2.812438
      pz      :     0.964165  p :     2.863004
      px      :     0.992742
      py      :     0.906097
      dz2     :     0.070671  d :     0.363887
      dxz     :     0.040219
      dyz     :     0.089055
      dx2y2   :     0.078661
      dxy     :     0.085281
  9 O s       :     3.352783  s :     3.352783
      pz      :     1.540378  p :     4.513708
      px      :     1.441722
      py      :     1.531607
      dz2     :     0.002983  d :     0.029956
      dxz     :     0.005380
      dyz     :     0.006607
      dx2y2   :     0.010412
      dxy     :     0.004574
 10 C s       :     2.806637  s :     2.806637
      pz      :     0.990874  p :     3.097604
      px      :     1.056021
      py      :     1.050709
      dz2     :     0.032637  d :     0.143544
      dxz     :     0.018222
      dyz     :     0.045029
      dx2y2   :     0.025326
      dxy     :     0.022329
 11 H s       :     0.881647  s :     0.881647
      pz      :     0.018353  p :     0.080221
      px      :     0.025052
      py      :     0.036816
 12 H s       :     0.892886  s :     0.892886
      pz      :     0.032340  p :     0.079526
      px      :     0.016203
      py      :     0.030983
 13 H s       :     0.882545  s :     0.882545
      pz      :     0.015550  p :     0.078636
      px      :     0.044571
      py      :     0.018515
 14 O s       :     3.490890  s :     3.490890
      pz      :     1.586627  p :     4.460062
      px      :     1.454718
      py      :     1.418717
      dz2     :     0.004352  d :     0.032802
      dxz     :     0.004016
      dyz     :     0.004095
      dx2y2   :     0.007458
      dxy     :     0.012880
 15 O s       :     3.385875  s :     3.385875
      pz      :     1.561009  p :     4.511603
      px      :     1.295797
      py      :     1.654798
      dz2     :     0.006838  d :     0.031864
      dxz     :     0.011428
      dyz     :     0.003164
      dx2y2   :     0.006264
      dxy     :     0.004170
 16 H s       :     0.876253  s :     0.876253
      pz      :     0.016316  p :     0.082013
      px      :     0.042404
      py      :     0.023294
 17 H s       :     0.885908  s :     0.885908
      pz      :     0.017793  p :     0.079201
      px      :     0.033629
      py      :     0.027779
 18 H s       :     0.878382  s :     0.878382
      pz      :     0.044504  p :     0.079002
      px      :     0.016882
      py      :     0.017617
 19 C s       :     2.822846  s :     2.822846
      pz      :     1.072354  p :     2.957950
      px      :     0.965346
      py      :     0.920250
      dz2     :     0.032413  d :     0.237004
      dxz     :     0.019443
      dyz     :     0.073350
      dx2y2   :     0.052062
      dxy     :     0.059736
 20 H s       :     0.892403  s :     0.892403
      pz      :     0.017397  p :     0.075450
      px      :     0.041210
      py      :     0.016843
 21 H s       :     0.902045  s :     0.902045
      pz      :     0.037124  p :     0.078238
      px      :     0.016747
      py      :     0.024367
 22 H s       :     0.903301  s :     0.903301
      pz      :     0.038401  p :     0.077634
      px      :     0.013955
      py      :     0.025278
 23 H s       :     0.736787  s :     0.736787
      pz      :     0.063304  p :     0.205826
      px      :     0.096197
      py      :     0.046325
 24 C s       :     2.844403  s :     2.844403
      pz      :     0.965260  p :     2.723305
      px      :     0.986440
      py      :     0.771605
      dz2     :     0.158870  d :     0.550113
      dxz     :     0.194250
      dyz     :     0.105063
      dx2y2   :     0.047774
      dxy     :     0.044156
 25 O s       :     3.483039  s :     3.483039
      pz      :     1.492691  p :     4.496148
      px      :     1.658329
      py      :     1.345128
      dz2     :     0.013608  d :     0.033404
      dxz     :     0.010191
      dyz     :     0.006874
      dx2y2   :     0.001341
      dxy     :     0.001390
 26 C s       :     2.794129  s :     2.794129
      pz      :     1.031733  p :     3.049050
      px      :     0.994497
      py      :     1.022821
      dz2     :     0.045929  d :     0.227477
      dxz     :     0.032388
      dyz     :     0.049683
      dx2y2   :     0.065461
      dxy     :     0.034015
 27 H s       :     0.883558  s :     0.883558
      pz      :     0.040058  p :     0.079186
      px      :     0.016171
      py      :     0.022957
 28 C s       :     2.798653  s :     2.798653
      pz      :     1.067547  p :     3.112105
      px      :     1.053923
      py      :     0.990634
      dz2     :     0.020028  d :     0.144254
      dxz     :     0.023259
      dyz     :     0.038700
      dx2y2   :     0.039481
      dxy     :     0.022786
 29 C s       :     2.790714  s :     2.790714
      pz      :     1.027866  p :     3.064022
      px      :     0.999767
      py      :     1.036390
      dz2     :     0.040311  d :     0.191903
      dxz     :     0.038465
      dyz     :     0.032135
      dx2y2   :     0.043619
      dxy     :     0.037373
 30 H s       :     0.890165  s :     0.890165
      pz      :     0.016865  p :     0.077405
      px      :     0.019834
      py      :     0.040706
 31 C s       :     2.799059  s :     2.799059
      pz      :     1.055491  p :     3.129805
      px      :     1.015908
      py      :     1.058405
      dz2     :     0.028269  d :     0.146454
      dxz     :     0.028897
      dyz     :     0.024861
      dx2y2   :     0.028871
      dxy     :     0.035556
 32 H s       :     0.887324  s :     0.887324
      pz      :     0.039593  p :     0.078324
      px      :     0.016334
      py      :     0.022397
 33 H s       :     0.895065  s :     0.895065
      pz      :     0.038592  p :     0.077026
      px      :     0.016325
      py      :     0.022108
 34 H s       :     0.893519  s :     0.893519
      pz      :     0.016203  p :     0.078225
      px      :     0.021551
      py      :     0.040471
 35 H s       :     0.888053  s :     0.888053
      pz      :     0.029769  p :     0.077594
      px      :     0.023799
      py      :     0.024026
 36 H s       :     0.885360  s :     0.885360
      pz      :     0.028974  p :     0.079959
      px      :     0.029198
      py      :     0.021787
 37 H s       :     0.885153  s :     0.885153
      pz      :     0.038850  p :     0.078393
      px      :     0.015972
      py      :     0.023571
 38 H s       :     0.891279  s :     0.891279
      pz      :     0.020323  p :     0.079060
      px      :     0.042473
      py      :     0.016264


                      *****************************
                      * MAYER POPULATION ANALYSIS *
                      *****************************

  NA   - Mulliken gross atomic population
  ZA   - Total nuclear charge
  QA   - Mulliken gross atomic charge
  VA   - Mayer's total valence
  BVA  - Mayer's bonded valence
  FA   - Mayer's free valence

  ATOM       NA         ZA         QA         VA         BVA        FA
  0 C      6.1229     6.0000    -0.1229     4.0523     3.9398     0.1125
  1 C      5.9027     6.0000     0.0973     4.1445     3.8038     0.3407
  2 C      6.1997     6.0000    -0.1997     3.9634     3.6925     0.2709
  3 C      5.9845     6.0000     0.0155     3.9712     3.9544     0.0168
  4 C      5.9003     6.0000     0.0997     3.9840     3.7145     0.2694
  5 O      8.2955     8.0000    -0.2955     2.2713     2.2202     0.0510
  6 C      5.9677     6.0000     0.0323     3.9457     3.7666     0.1791
  7 H      0.9767     1.0000     0.0233     1.0079     1.0062     0.0017
  8 C      5.8484     6.0000     0.1516     4.0175     3.8533     0.1642
  9 O      8.1612     8.0000    -0.1612     2.3570     2.3094     0.0476
 10 C      5.9283     6.0000     0.0717     3.8918     3.8559     0.0359
 11 H      0.9452     1.0000     0.0548     1.0018     0.9994     0.0024
 12 H      0.9699     1.0000     0.0301     0.9983     0.9931     0.0051
 13 H      0.9516     1.0000     0.0484     0.9927     0.9913     0.0014
 14 O      8.1997     8.0000    -0.1997     2.4435     1.9724     0.4711
 15 O      8.3058     8.0000    -0.3058     2.1904     2.1757     0.0147
 16 H      0.9457     1.0000     0.0543     1.0167     1.0135     0.0032
 17 H      0.9532     1.0000     0.0468     0.9781     0.9694     0.0087
 18 H      0.9353     1.0000     0.0647     0.9736     0.9625     0.0111
 19 C      5.9180     6.0000     0.0820     3.9640     3.9598     0.0042
 20 H      0.9445     1.0000     0.0555     0.9872     0.9851     0.0021
 21 H      0.9601     1.0000     0.0399     0.9798     0.9779     0.0019
 22 H      0.9631     1.0000     0.0369     0.9869     0.9796     0.0073
 23 H      0.8378     1.0000     0.1622     1.0580     1.0557     0.0023
 24 C      5.7375     6.0000     0.2625     4.2804     4.2772     0.0032
 25 O      8.2178     8.0000    -0.2178     2.3546     2.3436     0.0110
 26 C      6.1718     6.0000    -0.1718     4.0533     4.0524     0.0009
 27 H      0.9746     1.0000     0.0254     0.9821     0.9820     0.0002
 28 C      6.0180     6.0000    -0.0180     3.9606     3.9594     0.0012
 29 C      6.0415     6.0000    -0.0415     4.0550     4.0548     0.0002
 30 H      0.9687     1.0000     0.0313     0.9756     0.9755     0.0001
 31 C      6.0534     6.0000    -0.0534     4.0126     4.0126     0.0000
 32 H      0.9573     1.0000     0.0427     0.9854     0.9853     0.0001
 33 H      0.9678     1.0000     0.0322     0.9793     0.9793     0.0000
 34 H      0.9610     1.0000     0.0390     0.9830     0.9830     0.0000
 35 H      0.9593     1.0000     0.0407     0.9803     0.9802     0.0000
 36 H      0.9460     1.0000     0.0540     1.0025     1.0016     0.0009
 37 H      0.9467     1.0000     0.0533     0.9902     0.9895     0.0008
 38 H      0.9610     1.0000     0.0390     0.9853     0.9845     0.0008

  Mayer bond orders larger than 0.100000
B(  0-C ,  1-C ) :   0.9015 B(  0-C ,  8-C ) :   1.0124 B(  0-C , 10-C ) :   1.0261 
B(  0-C , 15-O ) :   0.8921 B(  1-C ,  2-C ) :   1.1481 B(  1-C , 14-O ) :   1.7063 
B(  2-C ,  3-C ) :   1.1112 B(  2-C ,  4-C ) :   1.2865 B(  3-C , 16-H ) :   0.9422 
B(  3-C , 17-H ) :   0.9406 B(  3-C , 18-H ) :   0.9487 B(  4-C ,  5-O ) :   1.1056 
B(  4-C ,  6-C ) :   1.2532 B(  5-O , 19-C ) :   1.0097 B(  6-C ,  7-H ) :   0.9245 
B(  6-C ,  8-C ) :   1.4883 B(  8-C ,  9-O ) :   1.2247 B(  9-O , 23-H ) :   0.9754 
B( 10-C , 11-H ) :   0.9553 B( 10-C , 12-H ) :   0.9521 B( 10-C , 13-H ) :   0.9605 
B( 15-O , 24-C ) :   1.0846 B( 19-C , 20-H ) :   0.9802 B( 19-C , 21-H ) :   0.9679 
B( 19-C , 22-H ) :   0.9646 B( 24-C , 25-O ) :   2.1532 B( 24-C , 26-C ) :   0.9905 
B( 26-C , 27-H ) :   0.9177 B( 26-C , 28-C ) :   1.0431 B( 26-C , 29-C ) :   1.0347 
B( 28-C , 36-H ) :   0.9628 B( 28-C , 37-H ) :   0.9680 B( 28-C , 38-H ) :   0.9650 
B( 29-C , 30-H ) :   0.9495 B( 29-C , 31-C ) :   1.0926 B( 29-C , 32-H ) :   0.9453 
B( 31-C , 33-H ) :   0.9686 B( 31-C , 34-H ) :   0.9677 B( 31-C , 35-H ) :   0.9699 



-------
TIMINGS
-------

Total TD-DFT gradient time         ...       56.845 sec

Fock matrix formation       ....      20.059 sec  ( 35.3%)
  Coulomb formation         ....      17.419 sec  ( 86.8% of F)
  RI-J                      ....       1.289 sec  (  6.4% of F)
  Chain of spheres X        ....      16.123 sec  ( 80.4% of F)
  XC integration            ....       2.640 sec  ( 13.2% of F)
Z-vector equation           ....      18.204 sec  ( 32.0%)
One electron gradient       ....       0.965 sec  (  1.7%)
Prescreening matrices       ....       0.321 sec  (  0.6%)
RI-J Coulomb gradient       ....       1.914 sec  (  3.4%)
COSX gradient               ....       8.877 sec  ( 15.6%)
XC gradient                 ....       3.756 sec  (  6.6%)

Maximum memory used throughout the entire SCFGRAD-calculation: 227.9 MB

                            ***************************************
                            *     ORCA property calculations      *
                            ***************************************

                                    ---------------------
                                    Active property flags
                                    ---------------------
   (+) Dipole Moment


------------------------------------------------------------------------------
                       ORCA ELECTRIC PROPERTIES CALCULATION
------------------------------------------------------------------------------

Dipole Moment Calculation                       ... on
Quadrupole Moment Calculation                   ... off
Polarizability Calculation                      ... off
GBWName                                         ... /gpfs/scratch/uam77/uam121718/4016736/engrad_18.gbw
Electron density                                ... /gpfs/scratch/uam77/uam121718/4016736/engrad_18.scfp
The origin for moment calculation is the CENTER OF MASS  = ( 1.963856, -0.213202 -0.587995)

-------------
DIPOLE MOMENT
-------------
                                X             Y             Z
Electronic contribution:    -12.64581      -5.55938       0.60120
Nuclear contribution   :     12.16206       5.55035       0.08840
                        -----------------------------------------
Total Dipole Moment    :     -0.48375      -0.00903       0.68960
                        -----------------------------------------
Magnitude (a.u.)       :      0.84240
Magnitude (Debye)      :      2.14121



--------------------
Rotational spectrum 
--------------------
 
Rotational constants in cm-1:     0.023979     0.007441     0.006951 
Rotational constants in MHz :   718.865131   223.083668   208.394334 

 Dipole components along the rotational axes: 
x,y,z [a.u.] :    -0.326113    -0.459678    -0.626085 
x,y,z [Debye]:    -0.828912    -1.168410    -1.591381 

 

                        *** CIS RELAXED DENSITY ***

------------------------------------------------------------------------------
                       ORCA ELECTRIC PROPERTIES CALCULATION
------------------------------------------------------------------------------

Dipole Moment Calculation                       ... on
Quadrupole Moment Calculation                   ... off
Polarizability Calculation                      ... off
GBWName                                         ... /gpfs/scratch/uam77/uam121718/4016736/engrad_18.gbw
Electron density                                ... /gpfs/scratch/uam77/uam121718/4016736/engrad_18.cisp
The origin for moment calculation is the CENTER OF MASS  = ( 1.963856, -0.213202 -0.587995)

-------------
DIPOLE MOMENT
-------------
                                X             Y             Z
Electronic contribution:    -12.45453      -5.45185       0.54036
Nuclear contribution   :     12.16206       5.55035       0.08840
                        -----------------------------------------
Total Dipole Moment    :     -0.29247       0.09849       0.62876
                        -----------------------------------------
Magnitude (a.u.)       :      0.70041
Magnitude (Debye)      :      1.78031



--------------------
Rotational spectrum 
--------------------
 
Rotational constants in cm-1:     0.023979     0.007441     0.006951 
Rotational constants in MHz :   718.865131   223.083668   208.394334 

 Dipole components along the rotational axes: 
x,y,z [a.u.] :    -0.174822    -0.289996    -0.613123 
x,y,z [Debye]:    -0.444362    -0.737110    -1.558435 

 

Timings for individual modules:

Sum of individual times         ...      169.931 sec (=   2.832 min)
GTO integral calculation        ...        8.198 sec (=   0.137 min)   4.8 %
SCF iterations                  ...       68.511 sec (=   1.142 min)  40.3 %
CIS module                      ...       34.858 sec (=   0.581 min)  20.5 %
SCF Gradient evaluation         ...       58.364 sec (=   0.973 min)  34.3 %
                             ****ORCA TERMINATED NORMALLY****
TOTAL RUN TIME: 0 days 0 hours 2 minutes 51 seconds 811 msec
