
                                 *****************
                                 * O   R   C   A *
                                 *****************

                                            #,                                       
                                            ###                                      
                                            ####                                     
                                            #####                                    
                                            ######                                   
                                           ########,                                 
                                     ,,################,,,,,                         
                               ,,#################################,,                 
                          ,,##########################################,,             
                       ,#########################################, ''#####,          
                    ,#############################################,,   '####,        
                  ,##################################################,,,,####,       
                ,###########''''           ''''###############################       
              ,#####''   ,,,,##########,,,,          '''####'''          '####       
            ,##' ,,,,###########################,,,                        '##       
           ' ,,###''''                  '''############,,,                           
         ,,##''                                '''############,,,,        ,,,,,,###''
      ,#''                                            '''#######################'''  
     '                                                          ''''####''''         
             ,#######,   #######,   ,#######,      ##                                
            ,#'     '#,  ##    ##  ,#'     '#,    #''#        ######   ,####,        
            ##       ##  ##   ,#'  ##            #'  '#       #        #'  '#        
            ##       ##  #######   ##           ,######,      #####,   #    #        
            '#,     ,#'  ##    ##  '#,     ,#' ,#      #,         ##   #,  ,#        
             '#######'   ##     ##  '#######'  #'      '#     #####' # '####'        



                  #######################################################
                  #                        -***-                        #
                  #          Department of theory and spectroscopy      #
                  #    Directorship and core code : Frank Neese         #
                  #        Max Planck Institute fuer Kohlenforschung    #
                  #                Kaiser Wilhelm Platz 1               #
                  #                 D-45470 Muelheim/Ruhr               #
                  #                      Germany                        #
                  #                                                     #
                  #                  All rights reserved                #
                  #                        -***-                        #
                  #######################################################


                         Program Version 5.0.3 -  RELEASE  -


 With contributions from (in alphabetic order):
   Daniel Aravena         : Magnetic Suceptibility
   Michael Atanasov       : Ab Initio Ligand Field Theory (pilot matlab implementation)
   Alexander A. Auer      : GIAO ZORA, VPT2 properties, NMR spectrum
   Ute Becker             : Parallelization
   Giovanni Bistoni       : ED, misc. LED, open-shell LED, HFLD
   Martin Brehm           : Molecular dynamics
   Dmytro Bykov           : SCF Hessian
   Vijay G. Chilkuri      : MRCI spin determinant printing, contributions to CSF-ICE
   Dipayan Datta          : RHF DLPNO-CCSD density
   Achintya Kumar Dutta   : EOM-CC, STEOM-CC
   Dmitry Ganyushin       : Spin-Orbit,Spin-Spin,Magnetic field MRCI
   Miquel Garcia          : C-PCM and meta-GGA Hessian, CC/C-PCM, Gaussian charge scheme
   Yang Guo               : DLPNO-NEVPT2, F12-NEVPT2, CIM, IAO-localization
   Andreas Hansen         : Spin unrestricted coupled pair/coupled cluster methods
   Benjamin Helmich-Paris : MC-RPA, TRAH-SCF, COSX integrals
   Lee Huntington         : MR-EOM, pCC
   Robert Izsak           : Overlap fitted RIJCOSX, COSX-SCS-MP3, EOM
   Marcus Kettner         : VPT2
   Christian Kollmar      : KDIIS, OOCD, Brueckner-CCSD(T), CCSD density, CASPT2, CASPT2-K
   Simone Kossmann        : Meta GGA functionals, TD-DFT gradient, OOMP2, MP2 Hessian
   Martin Krupicka        : Initial AUTO-CI
   Lucas Lang             : DCDCAS
   Marvin Lechner         : AUTO-CI (C++ implementation), FIC-MRCC
   Dagmar Lenk            : GEPOL surface, SMD
   Dimitrios Liakos       : Extrapolation schemes; Compound Job, initial MDCI parallelization
   Dimitrios Manganas     : Further ROCIS development; embedding schemes
   Dimitrios Pantazis     : SARC Basis sets
   Anastasios Papadopoulos: AUTO-CI, single reference methods and gradients
   Taras Petrenko         : DFT Hessian,TD-DFT gradient, ASA, ECA, R-Raman, ABS, FL, XAS/XES, NRVS
   Peter Pinski           : DLPNO-MP2, DLPNO-MP2 Gradient
   Christoph Reimann      : Effective Core Potentials
   Marius Retegan         : Local ZFS, SOC
   Christoph Riplinger    : Optimizer, TS searches, QM/MM, DLPNO-CCSD(T), (RO)-DLPNO pert. Triples
   Tobias Risthaus        : Range-separated hybrids, TD-DFT gradient, RPA, STAB
   Michael Roemelt        : Original ROCIS implementation
   Masaaki Saitow         : Open-shell DLPNO-CCSD energy and density
   Barbara Sandhoefer     : DKH picture change effects
   Avijit Sen             : IP-ROCIS
   Kantharuban Sivalingam : CASSCF convergence, NEVPT2, FIC-MRCI
   Bernardo de Souza      : ESD, SOC TD-DFT
   Georgi Stoychev        : AutoAux, RI-MP2 NMR, DLPNO-MP2 response
   Willem Van den Heuvel  : Paramagnetic NMR
   Boris Wezisla          : Elementary symmetry handling
   Frank Wennmohs         : Technical directorship


 We gratefully acknowledge several colleagues who have allowed us to
 interface, adapt or use parts of their codes:
   Stefan Grimme, W. Hujo, H. Kruse, P. Pracht,  : VdW corrections, initial TS optimization,
                  C. Bannwarth, S. Ehlert          DFT functionals, gCP, sTDA/sTD-DF
   Ed Valeev, F. Pavosevic, A. Kumar             : LibInt (2-el integral package), F12 methods
   Garnet Chan, S. Sharma, J. Yang, R. Olivares  : DMRG
   Ulf Ekstrom                                   : XCFun DFT Library
   Mihaly Kallay                                 : mrcc  (arbitrary order and MRCC methods)
   Jiri Pittner, Ondrej Demel                    : Mk-CCSD
   Frank Weinhold                                : gennbo (NPA and NBO analysis)
   Christopher J. Cramer and Donald G. Truhlar   : smd solvation model
   Lars Goerigk                                  : TD-DFT with DH, B97 family of functionals
   V. Asgeirsson, H. Jonsson                     : NEB implementation
   FAccTs GmbH                                   : IRC, NEB, NEB-TS, DLPNO-Multilevel, CI-OPT
                                                   MM, QMMM, 2- and 3-layer-ONIOM, Crystal-QMMM,
                                                   LR-CPCM, SF, NACMEs, symmetry and pop. for TD-DFT,
                                                   nearIR, NL-DFT gradient (VV10), updates on ESD,
                                                   ML-optimized integration grids
   S Lehtola, MJT Oliveira, MAL Marques          : LibXC Library
   Liviu Ungur et al                             : ANISO software


 Your calculation uses the libint2 library for the computation of 2-el integrals
 For citations please refer to: http://libint.valeyev.net

 Your ORCA version has been built with support for libXC version: 5.1.0
 For citations please refer to: https://tddft.org/programs/libxc/

 This ORCA versions uses:
   CBLAS   interface :  Fast vector & matrix operations
   LAPACKE interface :  Fast linear algebra routines
   SCALAPACK package :  Parallel linear algebra routines
   Shared memory     :  Shared parallel matrices
   BLAS/LAPACK       :  OpenBLAS 0.3.15  USE64BITINT DYNAMIC_ARCH NO_AFFINITY Prescott SINGLE_THREADED
        Core in use  :  Prescott
   Copyright (c) 2011-2014, The OpenBLAS Project


================================================================================

----- Orbital basis set information -----
Your calculation utilizes the basis: def2-SVP
   F. Weigend and R. Ahlrichs, Phys. Chem. Chem. Phys. 7, 3297 (2005).

----- AuxJ basis set information -----
Your calculation utilizes the auxiliary basis: def2/J
   F. Weigend, Phys. Chem. Chem. Phys. 8, 1057 (2006).

================================================================================
                                        WARNINGS
                       Please study these warnings very carefully!
================================================================================


WARNING: Geometry Optimization
  ===> : Switching off AutoStart
         For restart on a previous wavefunction, please use MOREAD

INFO   : the flag for use of the SHARK integral package has been found!

================================================================================
                                       INPUT FILE
================================================================================
NAME = /gpfs/scratch/uam77/uam121718/12043988/asdf.in
|  1> ! opt def2-svp b3lyp
|  2> 
|  3> * xyz 0 1 
|  4> H 0 0 0.5
|  5> O 0 0 0 
|  6> H 0 0 -0.5
|  7> *
|  8> %pal nprocs 6 end
|  9> 
| 10>                          ****END OF INPUT****
================================================================================

                       *****************************
                       * Geometry Optimization Run *
                       *****************************

Geometry optimization settings:
Update method            Update   .... BFGS
Choice of coordinates    CoordSys .... Z-matrix Internals
Initial Hessian          InHess   .... Almoef's Model

Convergence Tolerances:
Energy Change            TolE     ....  5.0000e-06 Eh
Max. Gradient            TolMAXG  ....  3.0000e-04 Eh/bohr
RMS Gradient             TolRMSG  ....  1.0000e-04 Eh/bohr
Max. Displacement        TolMAXD  ....  4.0000e-03 bohr
RMS Displacement         TolRMSD  ....  2.0000e-03 bohr
Strict Convergence                ....  False
------------------------------------------------------------------------------
                        ORCA OPTIMIZATION COORDINATE SETUP
------------------------------------------------------------------------------

The optimization will be done in new redundant internal coordinates
Making redundant internal coordinates   ...  (new redundants) done
Evaluating the initial hessian          ...  (Almloef) done
Evaluating the coordinates              ...  done
Calculating the B-matrix                .... done
Calculating the G-matrix                .... done
Diagonalizing the G-matrix              .... done
The first mode is                       ....    0
The number of degrees of freedom        ....    4

    -----------------------------------------------------------------
                    Redundant Internal Coordinates


    -----------------------------------------------------------------
         Definition                    Initial Value    Approx d2E/dq
    -----------------------------------------------------------------
      1. B(O   1,H   0)                  0.5000         2.817522   
      2. B(H   2,O   1)                  0.5000         2.817522   
      3. L(H   0,O   1,H   2, 2)       180.0000         0.589339   
      4. L(H   0,O   1,H   2, 1)       180.0000         0.589339   
    -----------------------------------------------------------------

Number of atoms                         .... 3
Number of degrees of freedom            .... 4

         *************************************************************
         *                GEOMETRY OPTIMIZATION CYCLE   1            *
         *************************************************************
---------------------------------
CARTESIAN COORDINATES (ANGSTROEM)
---------------------------------
  H      0.000000    0.000000    0.500000
  O      0.000000    0.000000    0.000000
  H      0.000000    0.000000   -0.500000

----------------------------
CARTESIAN COORDINATES (A.U.)
----------------------------
  NO LB      ZA    FRAG     MASS         X           Y           Z
   0 H     1.0000    0     1.008    0.000000    0.000000    0.944863
   1 O     8.0000    0    15.999    0.000000    0.000000    0.000000
   2 H     1.0000    0     1.008    0.000000    0.000000   -0.944863

--------------------------------
INTERNAL COORDINATES (ANGSTROEM)
--------------------------------
 H      0   0   0     0.000000000000     0.00000000     0.00000000
 O      1   0   0     0.500000000000     0.00000000     0.00000000
 H      2   1   0     0.500000000000   180.00000000     0.00000000

---------------------------
INTERNAL COORDINATES (A.U.)
---------------------------
 H      0   0   0     0.000000000000     0.00000000     0.00000000
 O      1   0   0     0.944863066961     0.00000000     0.00000000
 H      2   1   0     0.944863066961   180.00000000     0.00000000

---------------------
BASIS SET INFORMATION
---------------------
There are 2 groups of distinct atoms

 Group   1 Type H   : 4s1p contracted to 2s1p pattern {31/1}
 Group   2 Type O   : 7s4p1d contracted to 3s2p1d pattern {511/31/1}

Atom   0H    basis set group =>   1
Atom   1O    basis set group =>   2
Atom   2H    basis set group =>   1
---------------------------------
AUXILIARY/J BASIS SET INFORMATION
---------------------------------
There are 2 groups of distinct atoms

 Group   1 Type H   : 5s2p1d contracted to 3s1p1d pattern {311/2/1}
 Group   2 Type O   : 12s5p4d2f1g contracted to 6s4p3d1f1g pattern {711111/2111/211/2/1}

Atom   0H    basis set group =>   1
Atom   1O    basis set group =>   2
Atom   2H    basis set group =>   1


           ************************************************************
           *        Program running with 6 parallel MPI-processes     *
           *              working on a common directory               *
           ************************************************************
------------------------------------------------------------------------------
                           ORCA GTO INTEGRAL CALCULATION
                           -- RI-GTO INTEGRALS CHOSEN --
------------------------------------------------------------------------------
------------------------------------------------------------------------------
                   ___                                                        
                  /   \      - P O W E R E D   B Y -                         
                 /     \                                                     
                 |  |  |   _    _      __       _____    __    __             
                 |  |  |  | |  | |    /  \     |  _  \  |  |  /  |          
                  \  \/   | |  | |   /    \    | | | |  |  | /  /          
                 / \  \   | |__| |  /  /\  \   | |_| |  |  |/  /          
                |  |  |   |  __  | /  /__\  \  |    /   |      \           
                |  |  |   | |  | | |   __   |  |    \   |  |\   \          
                \     /   | |  | | |  |  |  |  | |\  \  |  | \   \       
                 \___/    |_|  |_| |__|  |__|  |_| \__\ |__|  \__/        
                                                                              
                      - O R C A' S   B I G   F R I E N D -                    
                                      &                                       
                       - I N T E G R A L  F E E D E R -                       
                                                                              
 v1 FN, 2020, v2 2021                                                         
------------------------------------------------------------------------------


Reading SHARK input file /gpfs/scratch/uam77/uam121718/12043988/asdf.SHARKINP.tmp ... ok
----------------------
SHARK INTEGRAL PACKAGE
----------------------

Number of atoms                             ...      3
Number of basis functions                   ...     24
Number of shells                            ...     12
Maximum angular momentum                    ...      2
Integral batch strategy                     ... SHARK/LIBINT Hybrid
RI-J (if used) integral strategy            ... SPLIT-RIJ (Revised 2003 algorithm where possible)
Printlevel                                  ...      1
Contraction scheme used                     ... SEGMENTED contraction
Coulomb Range Separation                    ... NOT USED
Exchange Range Separation                   ... NOT USED
Finite Nucleus Model                        ... NOT USED
Auxiliary Coulomb fitting basis             ... AVAILABLE
   # of basis functions in Aux-J            ...     71
   # of shells in Aux-J                     ...     25
   Maximum angular momentum in Aux-J        ...      4
Auxiliary J/K fitting basis                 ... NOT available
Auxiliary Correlation fitting basis         ... NOT available
Auxiliary 'external' fitting basis          ... NOT available
Integral threshold                          ...     2.500000e-11
Primitive cut-off                           ...     2.500000e-12
Primitive pair pre-selection threshold      ...     2.500000e-12

Calculating pre-screening integrals         ... done (  0.0 sec) Dimension = 12
Organizing shell pair data                  ... done (  0.0 sec)
Shell pair information
Total number of shell pairs                 ...        78
Shell pairs after pre-screening             ...        78
Total number of primitive shell pairs       ...       272
Primitive shell pairs kept                  ...       272
          la=0 lb=0:     28 shell pairs
          la=1 lb=0:     28 shell pairs
          la=1 lb=1:     10 shell pairs
          la=2 lb=0:      7 shell pairs
          la=2 lb=1:      4 shell pairs
          la=2 lb=2:      1 shell pairs

Calculating one electron integrals          ... done (  0.0 sec)
Calculating RI/J V-Matrix + Cholesky decomp.... done (  0.0 sec)
Calculating Nuclear repulsion               ... done (  0.0 sec) ENN=     17.462847873900 Eh

SHARK setup successfully completed in   0.1 seconds

Maximum memory used throughout the entire GTOINT-calculation: 8.7 MB


           ************************************************************
           *        Program running with 6 parallel MPI-processes     *
           *              working on a common directory               *
           ************************************************************
-------------------------------------------------------------------------------
                                 ORCA SCF
-------------------------------------------------------------------------------

------------
SCF SETTINGS
------------
Hamiltonian:
 Density Functional     Method          .... DFT(GTOs)
 Exchange Functional    Exchange        .... B88
   X-Alpha parameter    XAlpha          ....  0.666667
   Becke's b parameter  XBeta           ....  0.004200
 Correlation Functional Correlation     .... LYP
 LDA part of GGA corr.  LDAOpt          .... VWN-5
 Gradients option       PostSCFGGA      .... off
 Hybrid DFT is turned on
   Fraction HF Exchange ScalHFX         ....  0.200000
   Scaling of DF-GGA-X  ScalDFX         ....  0.720000
   Scaling of DF-GGA-C  ScalDFC         ....  0.810000
   Scaling of DF-LDA-C  ScalLDAC        ....  1.000000
   Perturbative correction              ....  0.000000
   Density functional embedding theory  .... OFF
   NL short-range parameter             ....  4.800000
 RI-approximation to the Coulomb term is turned on
   Number of AuxJ basis functions       .... 71
   RIJ-COSX (HFX calculated with COS-X)).... on


General Settings:
 Integral files         IntName         .... /gpfs/scratch/uam77/uam121718/12043988/asdf
 Hartree-Fock type      HFTyp           .... RHF
 Total Charge           Charge          ....    0
 Multiplicity           Mult            ....    1
 Number of Electrons    NEL             ....   10
 Basis Dimension        Dim             ....   24
 Nuclear Repulsion      ENuc            ....     17.4628478739 Eh

Convergence Acceleration:
 DIIS                   CNVDIIS         .... on
   Start iteration      DIISMaxIt       ....    12
   Startup error        DIISStart       ....  0.200000
   # of expansion vecs  DIISMaxEq       ....     5
   Bias factor          DIISBfac        ....   1.050
   Max. coefficient     DIISMaxC        ....  10.000
 Trust-Rad. Augm. Hess. CNVTRAH         .... auto
   Auto Start mean grad. ratio tolernc. ....  1.125000
   Auto Start start iteration           ....    20
   Auto Start num. interpolation iter.  ....    10
   Max. Number of Micro iterations      ....    16
   Max. Number of Macro iterations      .... Maxiter - #DIIS iter
   Number of Davidson start vectors     ....     2
   Converg. threshold I  (grad. norm)   ....   1.000e-05
   Converg. threshold II (energy diff.) ....   1.000e-08
   Grad. Scal. Fac. for Micro threshold ....   0.100
   Minimum threshold for Micro iter.    ....   0.010
   NR start threshold (gradient norm)   ....   0.001
   Initial trust radius                 ....   0.400
   Minimum AH scaling param. (alpha)    ....   1.000
   Maximum AH scaling param. (alpha)    .... 1000.000
   Orbital update algorithm             .... Taylor
   White noise on init. David. guess    .... on
   Maximum white noise                  ....   0.010
   Quad. conv. algorithm                .... NR
 SOSCF                  CNVSOSCF        .... on
   Start iteration      SOSCFMaxIt      ....   150
   Startup grad/error   SOSCFStart      ....  0.003300
 Level Shifting         CNVShift        .... on
   Level shift para.    LevelShift      ....    0.2500
   Turn off err/grad.   ShiftErr        ....    0.0010
 Zerner damping         CNVZerner       .... off
 Static damping         CNVDamp         .... on
   Fraction old density DampFac         ....    0.7000
   Max. Damping (<1)    DampMax         ....    0.9800
   Min. Damping (>=0)   DampMin         ....    0.0000
   Turn off err/grad.   DampErr         ....    0.1000
 Fernandez-Rico         CNVRico         .... off

SCF Procedure:
 Maximum # iterations   MaxIter         ....   125
 SCF integral mode      SCFMode         .... Direct
   Integral package                     .... SHARK and LIBINT hybrid scheme
 Reset frequency        DirectResetFreq ....    20
 Integral Threshold     Thresh          ....  2.500e-11 Eh
 Primitive CutOff       TCut            ....  2.500e-12 Eh

Convergence Tolerance:
 Convergence Check Mode ConvCheckMode   .... Total+1el-Energy
 Convergence forced     ConvForced      .... 0
 Energy Change          TolE            ....  1.000e-08 Eh
 1-El. energy change                    ....  1.000e-05 Eh
 Orbital Gradient       TolG            ....  1.000e-05
 Orbital Rotation angle TolX            ....  1.000e-05
 DIIS Error             TolErr          ....  5.000e-07


Diagonalization of the overlap matrix:
Smallest eigenvalue                        ... 3.453e-03
Time for diagonalization                   ...    0.000 sec
Threshold for overlap eigenvalues          ... 1.000e-08
Number of eigenvalues below threshold      ... 0
Time for construction of square roots      ...    0.002 sec
Total time needed                          ...    0.002 sec

Time for model grid setup =    0.010 sec

------------------------------
INITIAL GUESS: MODEL POTENTIAL
------------------------------
Loading Hartree-Fock densities                     ... done
Calculating cut-offs                               ... done
Initializing the effective Hamiltonian             ... done
Setting up the integral package (SHARK)            ... done
Starting the Coulomb interaction                   ... done (   0.0 sec)
Reading the grid                                   ... done
Mapping shells                                     ... done
Starting the XC term evaluation                    ... done (   0.0 sec)
  promolecular density results
     # of electrons  =      9.998991102
     EX              =     -9.051884641
     EC              =     -0.346006767
     EX+EC           =     -9.397891408
Transforming the Hamiltonian                       ... done (   0.0 sec)
Diagonalizing the Hamiltonian                      ... done (   0.0 sec)
Back transforming the eigenvectors                 ... done (   0.0 sec)
Now organizing SCF variables                       ... done
                      ------------------
                      INITIAL GUESS DONE (   0.0 sec)
                      ------------------
-------------------
DFT GRID GENERATION
-------------------

General Integration Accuracy     IntAcc      ... 4.388
Radial Grid Type                 RadialGrid  ... OptM3 with GC (2021)
Angular Grid (max. ang.)         AngularGrid ... 4 (Lebedev-302)
Angular grid pruning method      GridPruning ... 4 (adaptive)
Weight generation scheme         WeightScheme... Becke
Basis function cutoff            BFCut       ... 1.0000e-11
Integration weight cutoff        WCut        ... 1.0000e-14
Angular grids for H and He will be reduced by one unit
Partially contracted basis set               ... off
Rotationally invariant grid construction     ... off

Total number of grid points                  ...    12654
Total number of batches                      ...      199
Average number of points per batch           ...       63
Average number of grid points per atom       ...     4218
Time for grid setup =    0.051 sec

--------------------
COSX GRID GENERATION
--------------------

GRIDX 1
-------
General Integration Accuracy     IntAcc      ... 3.816
Radial Grid Type                 RadialGrid  ... OptM3 with GC (2021)
Angular Grid (max. ang.)         AngularGrid ... 1 (Lebedev-50)
Angular grid pruning method      GridPruning ... 4 (adaptive)
Weight generation scheme         WeightScheme... Becke
Basis function cutoff            BFCut       ... 1.0000e-11
Integration weight cutoff        WCut        ... 1.0000e-14
Angular grids for H and He will be reduced by one unit
Partially contracted basis set               ... on
Rotationally invariant grid construction     ... off

Total number of grid points                  ...     1636
Total number of batches                      ...       26
Average number of points per batch           ...       62
Average number of grid points per atom       ...      545
UseSFitting                                  ... on

GRIDX 2
-------
General Integration Accuracy     IntAcc      ... 4.020
Radial Grid Type                 RadialGrid  ... OptM3 with GC (2021)
Angular Grid (max. ang.)         AngularGrid ... 2 (Lebedev-110)
Angular grid pruning method      GridPruning ... 4 (adaptive)
Weight generation scheme         WeightScheme... Becke
Basis function cutoff            BFCut       ... 1.0000e-11
Integration weight cutoff        WCut        ... 1.0000e-14
Angular grids for H and He will be reduced by one unit
Partially contracted basis set               ... on
Rotationally invariant grid construction     ... off

Total number of grid points                  ...     3480
Total number of batches                      ...       57
Average number of points per batch           ...       61
Average number of grid points per atom       ...     1160
UseSFitting                                  ... on

GRIDX 3
-------
General Integration Accuracy     IntAcc      ... 4.338
Radial Grid Type                 RadialGrid  ... OptM3 with GC (2021)
Angular Grid (max. ang.)         AngularGrid ... 3 (Lebedev-194)
Angular grid pruning method      GridPruning ... 4 (adaptive)
Weight generation scheme         WeightScheme... Becke
Basis function cutoff            BFCut       ... 1.0000e-11
Integration weight cutoff        WCut        ... 1.0000e-14
Angular grids for H and He will be reduced by one unit
Partially contracted basis set               ... on
Rotationally invariant grid construction     ... off

Total number of grid points                  ...     7686
Total number of batches                      ...      121
Average number of points per batch           ...       63
Average number of grid points per atom       ...     2562
UseSFitting                                  ... on

Time for X-Grid setup             =    0.036 sec

--------------
SCF ITERATIONS
--------------
ITER       Energy         Delta-E        Max-DP      RMS-DP      [F,P]     Damp
               ***  Starting incremental Fock matrix formation  ***
  0    -74.4205821624   0.000000000000 0.18657335  0.01674019  0.5838194 0.7000
  1    -74.5608600764  -0.140277913974 0.11486429  0.00993753  0.3007526 0.7000
                               ***Turning on DIIS***
  2    -74.6213197422  -0.060459665754 0.05312883  0.00442867  0.1236077 0.7000
  3    -74.6567216220  -0.035401879804 0.05583300  0.00463931  0.0454629 0.0000
  4    -74.7370502533  -0.080328631350 0.01159040  0.00107638  0.0223804 0.0000
                      *** Initiating the SOSCF procedure ***
                           *** Shutting down DIIS ***
                      *** Re-Reading the Fockian *** 
                      *** Removing any level shift *** 
ITER      Energy       Delta-E        Grad      Rot      Max-DP    RMS-DP
  5    -74.73746399  -0.0004137382  0.000725  0.000725  0.001199  0.000127
               *** Restarting incremental Fock matrix formation ***
  6    -74.73810271  -0.0006387204  0.000256  0.000145  0.000529  0.000038
  7    -74.73810280  -0.0000000873  0.000148  0.000069  0.000160  0.000017
  8    -74.73810287  -0.0000000747  0.000021  0.000007  0.000017  0.000002
                 **** Energy Check signals convergence ****
              ***Rediagonalizing the Fockian in SOSCF/NRSCF***

               *****************************************************
               *                     SUCCESS                       *
               *           SCF CONVERGED AFTER   9 CYCLES          *
               *****************************************************

Old exchange energy                            =     -1.935714592 Eh
New exchange energy                            =     -1.935782198 Eh
Exchange energy change after final integration =     -0.000067606 Eh
Total energy after final integration           =    -74.738170481 Eh
Final COS-X integration done in                =     0.028 sec

----------------
TOTAL SCF ENERGY
----------------

Total Energy       :          -74.73817048 Eh           -2033.72901 eV

Components:
Nuclear Repulsion  :           17.46284787 Eh             475.18825 eV
Electronic Energy  :          -92.20101835 Eh           -2508.91726 eV
One Electron Energy:         -134.83731920 Eh           -3669.10999 eV
Two Electron Energy:           42.63630084 Eh            1160.19273 eV
Max COSX asymmetry :            0.00000237 Eh               0.00006 eV

Virial components:
Potential Energy   :         -154.73754261 Eh           -4210.62260 eV
Kinetic Energy     :           79.99937213 Eh            2176.89359 eV
Virial Ratio       :            1.93423446


DFT components:
N(Alpha)           :        5.000001697888 electrons
N(Beta)            :        5.000001697888 electrons
N(Total)           :       10.000003395775 electrons
E(X)               :       -7.667786505217 Eh       
E(C)               :       -0.423328469344 Eh       
E(XC)              :       -8.091114974561 Eh       
DFET-embed. en.    :        0.000000000000 Eh       

---------------
SCF CONVERGENCE
---------------

  Last Energy change         ...   -5.1455e-10  Tolerance :   1.0000e-08
  Last MAX-Density change    ...    6.6613e-16  Tolerance :   1.0000e-07
  Last RMS-Density change    ...    6.1193e-17  Tolerance :   5.0000e-09
  Last Orbital Gradient      ...    3.0974e-06  Tolerance :   1.0000e-05
  Last Orbital Rotation      ...    9.3362e-07  Tolerance :   1.0000e-05

             **** THE GBW FILE WAS UPDATED (/gpfs/scratch/uam77/uam121718/12043988/asdf.gbw) ****
             **** DENSITY /gpfs/scratch/uam77/uam121718/12043988/asdf.scfp WAS UPDATED ****
             **** ENERGY FILE WAS UPDATED (/gpfs/scratch/uam77/uam121718/12043988/asdf.en.tmp) ****
             **** THE GBW FILE WAS UPDATED (/gpfs/scratch/uam77/uam121718/12043988/asdf.gbw) ****
             **** DENSITY /gpfs/scratch/uam77/uam121718/12043988/asdf.scfp WAS UPDATED ****
----------------
ORBITAL ENERGIES
----------------

  NO   OCC          E(Eh)            E(eV) 
   0   2.0000     -19.098182      -519.6880 
   1   2.0000      -1.177862       -32.0512 
   2   2.0000      -0.917591       -24.9689 
   3   2.0000      -0.348199        -9.4750 
   4   2.0000      -0.348199        -9.4750 
   5   0.0000       0.121295         3.3006 
   6   0.0000       0.169537         4.6133 
   7   0.0000       0.811137        22.0722 
   8   0.0000       0.811137        22.0722 
   9   0.0000       0.865091        23.5403 
  10   0.0000       1.002792        27.2874 
  11   0.0000       1.255417        34.1616 
  12   0.0000       1.381990        37.6059 
  13   0.0000       1.381990        37.6059 
  14   0.0000       2.117539        57.6212 
  15   0.0000       2.572080        69.9899 
  16   0.0000       2.572080        69.9899 
  17   0.0000       2.606890        70.9371 
  18   0.0000       2.607234        70.9464 
  19   0.0000       3.197334        87.0039 
  20   0.0000       3.970815       108.0514 
  21   0.0000       3.970815       108.0514 
  22   0.0000       5.622316       152.9910 
  23   0.0000       6.250282       170.0788 

                    ********************************
                    * MULLIKEN POPULATION ANALYSIS *
                    ********************************

-----------------------
MULLIKEN ATOMIC CHARGES
-----------------------
   0 H :   -0.371734
   1 O :    0.743468
   2 H :   -0.371734
Sum of atomic charges:   -0.0000000

--------------------------------
MULLIKEN REDUCED ORBITAL CHARGES
--------------------------------
  0 H s       :     1.238334  s :     1.238334
      pz      :     0.067083  p :     0.133400
      px      :     0.033159
      py      :     0.033159
  1 O s       :     2.416737  s :     2.416737
      pz      :     0.959435  p :     4.826801
      px      :     1.933683
      py      :     1.933683
      dz2     :     0.012994  d :     0.012994
      dxz     :    -0.000000
      dyz     :    -0.000000
      dx2y2   :     0.000000
      dxy     :     0.000000
  2 H s       :     1.238334  s :     1.238334
      pz      :     0.067083  p :     0.133400
      px      :     0.033159
      py      :     0.033159


                     *******************************
                     * LOEWDIN POPULATION ANALYSIS *
                     *******************************

----------------------
LOEWDIN ATOMIC CHARGES
----------------------
   0 H :   -0.327970
   1 O :    0.655941
   2 H :   -0.327970

-------------------------------
LOEWDIN REDUCED ORBITAL CHARGES
-------------------------------
  0 H s       :     0.753061  s :     0.753061
      pz      :     0.108091  p :     0.574909
      px      :     0.233409
      py      :     0.233409
  1 O s       :     2.806849  s :     2.806849
      pz      :     1.437093  p :     4.503457
      px      :     1.533182
      py      :     1.533182
      dz2     :     0.033754  d :     0.033754
      dxz     :     0.000000
      dyz     :    -0.000000
      dx2y2   :     0.000000
      dxy     :     0.000000
  2 H s       :     0.753061  s :     0.753061
      pz      :     0.108091  p :     0.574909
      px      :     0.233409
      py      :     0.233409


                      *****************************
                      * MAYER POPULATION ANALYSIS *
                      *****************************

  NA   - Mulliken gross atomic population
  ZA   - Total nuclear charge
  QA   - Mulliken gross atomic charge
  VA   - Mayer's total valence
  BVA  - Mayer's bonded valence
  FA   - Mayer's free valence

  ATOM       NA         ZA         QA         VA         BVA        FA
  0 H      1.3717     1.0000    -0.3717     1.0850     1.0850    -0.0000
  1 O      7.2565     8.0000     0.7435     1.9229     1.9229    -0.0000
  2 H      1.3717     1.0000    -0.3717     1.0850     1.0850    -0.0000

  Mayer bond orders larger than 0.100000
B(  0-H ,  1-O ) :   0.9614 B(  0-H ,  2-H ) :   0.1236 B(  1-O ,  2-H ) :   0.9614 


-------
TIMINGS
-------

Total SCF time: 0 days 0 hours 0 min 0 sec 

Total time                  ....       0.692 sec
Sum of individual times     ....       0.622 sec  ( 89.9%)

Fock matrix formation       ....       0.491 sec  ( 71.0%)
  Split-RI-J                ....       0.113 sec  ( 23.0% of F)
  Chain of spheres X        ....       0.244 sec  ( 49.8% of F)
  XC integration            ....       0.101 sec  ( 20.6% of F)
    Basis function eval.    ....       0.013 sec  ( 12.4% of XC)
    Density eval.           ....       0.010 sec  ( 10.2% of XC)
    XC-Functional eval.     ....       0.011 sec  ( 10.9% of XC)
    XC-Potential eval.      ....       0.005 sec  (  5.2% of XC)
Diagonalization             ....       0.006 sec  (  0.9%)
Density matrix formation    ....       0.001 sec  (  0.1%)
Population analysis         ....       0.004 sec  (  0.5%)
Initial guess               ....       0.006 sec  (  0.9%)
Orbital Transformation      ....       0.000 sec  (  0.0%)
Orbital Orthonormalization  ....       0.000 sec  (  0.0%)
DIIS solution               ....       0.010 sec  (  1.4%)
SOSCF solution              ....       0.007 sec  (  0.9%)
Grid generation             ....       0.098 sec  ( 14.1%)

Maximum memory used throughout the entire SCF-calculation: 43.0 MB

-------------------------   --------------------
FINAL SINGLE POINT ENERGY       -74.738170480529
-------------------------   --------------------



           ************************************************************
           *        Program running with 6 parallel MPI-processes     *
           *              working on a common directory               *
           ************************************************************
------------------------------------------------------------------------------
                         ORCA SCF GRADIENT CALCULATION
------------------------------------------------------------------------------

 ... reading COSX grid (gridx3)
Gradient of the Kohn-Sham DFT energy:
Kohn-Sham wavefunction type      ... RKS
Hartree-Fock exchange scaling    ...    0.200
Number of operators              ...    1
Number of atoms                  ...    3
Basis set dimensions             ...   24
Integral neglect threshold       ... 2.5e-11
Integral primitive cutoff        ... 2.5e-12
SHARK Integral package           ... ON

Nuc. rep. gradient       (SHARK) ... done (  0.0 sec)
HCore & Overlap gradient (SHARK) ... done (  0.0 sec)
RI-J gradient            (SHARK) ... done (  0.0 sec)
COSX-gradient                    ... done (  0.0 sec)
Exchange-correlation gradient    ... done

------------------
CARTESIAN GRADIENT
------------------

   1   H   :    0.000000003    0.000000002   -3.307635505
   2   O   :   -0.000000046   -0.000000006    0.000000070
   3   H   :    0.000000003    0.000000002    3.307635462

Difference to translation invariance:
           :   -0.0000000402   -0.0000000014    0.0000000264

Difference to rotation invariance:
           :   -0.0000000003    0.0000000003    0.0000000000

Norm of the cartesian gradient     ...    4.6777029596
RMS gradient                       ...    1.5592343199
MAX gradient                       ...    3.3076355047

-------
TIMINGS
-------

Total SCF gradient time            ...        0.160 sec

One electron gradient       ....       0.001 sec  (  0.4%)
RI-J Coulomb gradient       ....       0.032 sec  ( 20.2%)
COSX gradient               ....       0.035 sec  ( 21.9%)
XC gradient                 ....       0.016 sec  ( 10.1%)

Maximum memory used throughout the entire SCFGRAD-calculation: 32.6 MB
------------------------------------------------------------------------------
                         ORCA GEOMETRY RELAXATION STEP
------------------------------------------------------------------------------

Reading the OPT-File                    .... done
Getting information on internals        .... done
Copying old internal coords+grads       .... done
Making the new internal coordinates     .... (new redundants).... done
Validating the new internal coordinates .... (new redundants).... done
Calculating the B-matrix                .... done
Calculating the G,G- and P matrices     .... done
Transforming gradient to internals      .... done
Projecting the internal gradient        .... done
Number of atoms                         ....   3
Number of internal coordinates          ....   4
Current Energy                          ....   -74.738170481 Eh
Current gradient norm                   ....     4.677702960 Eh/bohr
Maximum allowed component of the step   ....  0.300
Current trust radius                    ....  0.300
Evaluating the initial hessian          ....  (Almloef) done
Projecting the Hessian                  .... done
Forming the augmented Hessian           .... done
Diagonalizing the augmented Hessian     .... done
Last element of RFO vector              ....  0.802611762
Lowest eigenvalues of augmented Hessian:
 -3.476472958  0.589339114  0.589339114  2.817522493
Length of the computed step             ....  0.743200880
Warning: the length of the step is outside the trust region - taking restricted step instead
The input lambda is                     ....    -3.476473
   iter:   1  x=   -6.110696  g=    0.175516 f(x)=     0.462348
   iter:   2  x=   -9.111140  g=    0.061489 f(x)=     0.184496
   iter:   3  x=  -11.584691  g=    0.025782 f(x)=     0.063774
   iter:   4  x=  -12.642028  g=    0.014649 f(x)=     0.015489
   iter:   5  x=  -12.773129  g=    0.011844 f(x)=     0.001553
   iter:   6  x=  -12.774820  g=    0.011548 f(x)=     0.000020
   iter:   7  x=  -12.774821  g=    0.011544 f(x)=     0.000000
   iter:   8  x=  -12.774821  g=    0.011544 f(x)=     0.000000
The output lambda is                    ....   -12.774821 (8 iterations)
The final length of the internal step   ....  0.300000000
Converting the step to cartesian space:
 Initial RMS(Int)=    0.1500000000
Transforming coordinates:
 Iter   0:  RMS(Cart)=    0.0942809042 RMS(Int)=    0.1414213562
 Iter   1:  RMS(Cart)=    0.0057190958 RMS(Int)=    0.0085786438
 Iter   2:  RMS(Cart)=    0.0000000048 RMS(Int)=    0.0000000441
done
Storing new coordinates                 .... done

                                .--------------------.
          ----------------------|Geometry convergence|-------------------------
          Item                value                   Tolerance       Converged
          ---------------------------------------------------------------------
          RMS gradient        2.3388514798            0.0001000000      NO
          MAX gradient        3.3076355135            0.0003000000      NO
          RMS step            0.1500000000            0.0020000000      NO
          MAX step            0.2121320363            0.0040000000      NO
          ........................................................
          Max(Bonds)      0.1123      Max(Angles)    0.00
          Max(Dihed)        0.00      Max(Improp)    0.00
          ---------------------------------------------------------------------

The optimization has not yet converged - more geometry cycles are needed


    ---------------------------------------------------------------------------
                         Redundant Internal Coordinates
                            (Angstroem and degrees)

        Definition                    Value    dE/dq     Step     New-Value
    ----------------------------------------------------------------------------
     1. B(O   1,H   0)                0.5000 -3.307636  0.1123    0.6123   
     2. B(H   2,O   1)                0.5000 -3.307635  0.1123    0.6123   
     3. L(H   0,O   1,H   2, 2)       180.00  0.000000   -0.00    180.00   
     4. L(H   0,O   1,H   2, 1)       180.00 -0.000000    0.00    180.00   
    ----------------------------------------------------------------------------

         *************************************************************
         *                GEOMETRY OPTIMIZATION CYCLE   2            *
         *************************************************************
---------------------------------
CARTESIAN COORDINATES (ANGSTROEM)
---------------------------------
  H      0.000000    0.000000    0.612255
  O     -0.000000   -0.000000   -0.000000
  H      0.000000    0.000000   -0.612255

----------------------------
CARTESIAN COORDINATES (A.U.)
----------------------------
  NO LB      ZA    FRAG     MASS         X           Y           Z
   0 H     1.0000    0     1.008    0.000000    0.000000    1.156995
   1 O     8.0000    0    15.999   -0.000000   -0.000000   -0.000000
   2 H     1.0000    0     1.008    0.000000    0.000000   -1.156995

--------------------------------
INTERNAL COORDINATES (ANGSTROEM)
--------------------------------
 H      0   0   0     0.000000000000     0.00000000     0.00000000
 O      1   0   0     0.612255438763     0.00000000     0.00000000
 H      2   1   0     0.612255436700   179.99999791     0.00000000

---------------------------
INTERNAL COORDINATES (A.U.)
---------------------------
 H      0   0   0     0.000000000000     0.00000000     0.00000000
 O      1   0   0     1.156995103265     0.00000000     0.00000000
 H      2   1   0     1.156995099368   179.99999791     0.00000000



           ************************************************************
           *        Program running with 6 parallel MPI-processes     *
           *              working on a common directory               *
           ************************************************************
------------------------------------------------------------------------------
                   ___                                                        
                  /   \      - P O W E R E D   B Y -                         
                 /     \                                                     
                 |  |  |   _    _      __       _____    __    __             
                 |  |  |  | |  | |    /  \     |  _  \  |  |  /  |          
                  \  \/   | |  | |   /    \    | | | |  |  | /  /          
                 / \  \   | |__| |  /  /\  \   | |_| |  |  |/  /          
                |  |  |   |  __  | /  /__\  \  |    /   |      \           
                |  |  |   | |  | | |   __   |  |    \   |  |\   \          
                \     /   | |  | | |  |  |  |  | |\  \  |  | \   \       
                 \___/    |_|  |_| |__|  |__|  |_| \__\ |__|  \__/        
                                                                              
                      - O R C A' S   B I G   F R I E N D -                    
                                      &                                       
                       - I N T E G R A L  F E E D E R -                       
                                                                              
 v1 FN, 2020, v2 2021                                                         
------------------------------------------------------------------------------


Reading SHARK input file /gpfs/scratch/uam77/uam121718/12043988/asdf.SHARKINP.tmp ... ok
----------------------
SHARK INTEGRAL PACKAGE
----------------------

Number of atoms                             ...      3
Number of basis functions                   ...     24
Number of shells                            ...     12
Maximum angular momentum                    ...      2
Integral batch strategy                     ... SHARK/LIBINT Hybrid
RI-J (if used) integral strategy            ... SPLIT-RIJ (Revised 2003 algorithm where possible)
Printlevel                                  ...      1
Contraction scheme used                     ... SEGMENTED contraction
Coulomb Range Separation                    ... NOT USED
Exchange Range Separation                   ... NOT USED
Finite Nucleus Model                        ... NOT USED
Auxiliary Coulomb fitting basis             ... AVAILABLE
   # of basis functions in Aux-J            ...     71
   # of shells in Aux-J                     ...     25
   Maximum angular momentum in Aux-J        ...      4
Auxiliary J/K fitting basis                 ... NOT available
Auxiliary Correlation fitting basis         ... NOT available
Auxiliary 'external' fitting basis          ... NOT available
Integral threshold                          ...     2.500000e-11
Primitive cut-off                           ...     2.500000e-12
Primitive pair pre-selection threshold      ...     2.500000e-12

Calculating pre-screening integrals         ... done (  0.0 sec) Dimension = 12
Organizing shell pair data                  ... done (  0.0 sec)
Shell pair information
Total number of shell pairs                 ...        78
Shell pairs after pre-screening             ...        78
Total number of primitive shell pairs       ...       272
Primitive shell pairs kept                  ...       271
          la=0 lb=0:     28 shell pairs
          la=1 lb=0:     28 shell pairs
          la=1 lb=1:     10 shell pairs
          la=2 lb=0:      7 shell pairs
          la=2 lb=1:      4 shell pairs
          la=2 lb=2:      1 shell pairs

Calculating one electron integrals          ... done (  0.0 sec)
Calculating RI/J V-Matrix + Cholesky decomp.... done (  0.0 sec)
Calculating Nuclear repulsion               ... done (  0.0 sec) ENN=     14.261080259738 Eh

SHARK setup successfully completed in   0.1 seconds

Maximum memory used throughout the entire GTOINT-calculation: 8.7 MB


           ************************************************************
           *        Program running with 6 parallel MPI-processes     *
           *              working on a common directory               *
           ************************************************************

Diagonalization of the overlap matrix:
Smallest eigenvalue                        ... 7.437e-03
Time for diagonalization                   ...    0.000 sec
Threshold for overlap eigenvalues          ... 1.000e-08
Number of eigenvalues below threshold      ... 0
Time for construction of square roots      ...    0.001 sec
Total time needed                          ...    0.002 sec

-------------------
DFT GRID GENERATION
-------------------

General Integration Accuracy     IntAcc      ... 4.388
Radial Grid Type                 RadialGrid  ... OptM3 with GC (2021)
Angular Grid (max. ang.)         AngularGrid ... 4 (Lebedev-302)
Angular grid pruning method      GridPruning ... 4 (adaptive)
Weight generation scheme         WeightScheme... Becke
Basis function cutoff            BFCut       ... 1.0000e-11
Integration weight cutoff        WCut        ... 1.0000e-14
Angular grids for H and He will be reduced by one unit
Partially contracted basis set               ... off
Rotationally invariant grid construction     ... off

Total number of grid points                  ...    12684
Total number of batches                      ...      199
Average number of points per batch           ...       63
Average number of grid points per atom       ...     4228
Time for grid setup =    0.053 sec

--------------------
COSX GRID GENERATION
--------------------

GRIDX 1
-------
General Integration Accuracy     IntAcc      ... 3.816
Radial Grid Type                 RadialGrid  ... OptM3 with GC (2021)
Angular Grid (max. ang.)         AngularGrid ... 1 (Lebedev-50)
Angular grid pruning method      GridPruning ... 4 (adaptive)
Weight generation scheme         WeightScheme... Becke
Basis function cutoff            BFCut       ... 1.0000e-11
Integration weight cutoff        WCut        ... 1.0000e-14
Angular grids for H and He will be reduced by one unit
Partially contracted basis set               ... on
Rotationally invariant grid construction     ... off

Total number of grid points                  ...     1640
Total number of batches                      ...       27
Average number of points per batch           ...       60
Average number of grid points per atom       ...      547
UseSFitting                                  ... on

GRIDX 2
-------
General Integration Accuracy     IntAcc      ... 4.020
Radial Grid Type                 RadialGrid  ... OptM3 with GC (2021)
Angular Grid (max. ang.)         AngularGrid ... 2 (Lebedev-110)
Angular grid pruning method      GridPruning ... 4 (adaptive)
Weight generation scheme         WeightScheme... Becke
Basis function cutoff            BFCut       ... 1.0000e-11
Integration weight cutoff        WCut        ... 1.0000e-14
Angular grids for H and He will be reduced by one unit
Partially contracted basis set               ... on
Rotationally invariant grid construction     ... off

Total number of grid points                  ...     3484
Total number of batches                      ...       56
Average number of points per batch           ...       62
Average number of grid points per atom       ...     1161
UseSFitting                                  ... on

GRIDX 3
-------
General Integration Accuracy     IntAcc      ... 4.338
Radial Grid Type                 RadialGrid  ... OptM3 with GC (2021)
Angular Grid (max. ang.)         AngularGrid ... 3 (Lebedev-194)
Angular grid pruning method      GridPruning ... 4 (adaptive)
Weight generation scheme         WeightScheme... Becke
Basis function cutoff            BFCut       ... 1.0000e-11
Integration weight cutoff        WCut        ... 1.0000e-14
Angular grids for H and He will be reduced by one unit
Partially contracted basis set               ... on
Rotationally invariant grid construction     ... off

Total number of grid points                  ...     7706
Total number of batches                      ...      122
Average number of points per batch           ...       63
Average number of grid points per atom       ...     2569
UseSFitting                                  ... on

Time for X-Grid setup             =    0.037 sec

--------------
SCF ITERATIONS
--------------
ITER       Energy         Delta-E        Max-DP      RMS-DP      [F,P]     Damp
               ***  Starting incremental Fock matrix formation  ***
  0    -75.6573482031   0.000000000000 0.06241622  0.00677888  0.2570671 0.7000
  1    -75.6677032314  -0.010355028394 0.04909348  0.00526696  0.1847897 0.7000
                               ***Turning on DIIS***
  2    -75.6747313104  -0.007028078989 0.03521033  0.00375239  0.1278795 0.7000
  3    -75.6795926152  -0.004861304765 0.08635960  0.00890122  0.0880383 0.0000
  4    -75.6909288163  -0.011336201081 0.00386146  0.00037981  0.0036875 0.0000
                      *** Initiating the SOSCF procedure ***
                           *** Shutting down DIIS ***
                      *** Re-Reading the Fockian *** 
                      *** Removing any level shift *** 
ITER      Energy       Delta-E        Grad      Rot      Max-DP    RMS-DP
  5    -75.69092895  -0.0000001290  0.000649  0.000649  0.001357  0.000126
               *** Restarting incremental Fock matrix formation ***
  6    -75.69104780  -0.0001188569  0.000152  0.000126  0.000310  0.000035
  7    -75.69104781  -0.0000000038  0.000161  0.000068  0.000170  0.000016
                  ***Gradient check signals convergence***
              ***Rediagonalizing the Fockian in SOSCF/NRSCF***

               *****************************************************
               *                     SUCCESS                       *
               *           SCF CONVERGED AFTER   8 CYCLES          *
               *****************************************************

Old exchange energy                            =     -1.886534628 Eh
New exchange energy                            =     -1.886554535 Eh
Exchange energy change after final integration =     -0.000019907 Eh
Total energy after final integration           =    -75.691067792 Eh
Final COS-X integration done in                =     0.028 sec
Total Energy       :          -75.69106779 Eh           -2059.65867 eV
  Last Energy change         ...   -7.9071e-08  Tolerance :   1.0000e-08
  Last MAX-Density change    ...    5.5511e-16  Tolerance :   1.0000e-07
             **** THE GBW FILE WAS UPDATED (/gpfs/scratch/uam77/uam121718/12043988/asdf.gbw) ****
             **** DENSITY /gpfs/scratch/uam77/uam121718/12043988/asdf.scfp WAS UPDATED ****
             **** ENERGY FILE WAS UPDATED (/gpfs/scratch/uam77/uam121718/12043988/asdf.en.tmp) ****
             **** THE GBW FILE WAS UPDATED (/gpfs/scratch/uam77/uam121718/12043988/asdf.gbw) ****
             **** DENSITY /gpfs/scratch/uam77/uam121718/12043988/asdf.scfp WAS UPDATED ****
Total SCF time: 0 days 0 hours 0 min 0 sec 

Maximum memory used throughout the entire SCF-calculation: 42.9 MB

-------------------------   --------------------
FINAL SINGLE POINT ENERGY       -75.691067792139
-------------------------   --------------------



           ************************************************************
           *        Program running with 6 parallel MPI-processes     *
           *              working on a common directory               *
           ************************************************************
------------------------------------------------------------------------------
                         ORCA SCF GRADIENT CALCULATION
------------------------------------------------------------------------------

 ... reading COSX grid (gridx3)
Gradient of the Kohn-Sham DFT energy:
Kohn-Sham wavefunction type      ... RKS
Hartree-Fock exchange scaling    ...    0.200
Number of operators              ...    1
Number of atoms                  ...    3
Basis set dimensions             ...   24
Integral neglect threshold       ... 2.5e-11
Integral primitive cutoff        ... 2.5e-12
SHARK Integral package           ... ON

Nuc. rep. gradient       (SHARK) ... done (  0.0 sec)
HCore & Overlap gradient (SHARK) ... done (  0.0 sec)
RI-J gradient            (SHARK) ... done (  0.0 sec)
COSX-gradient                    ... done (  0.0 sec)
Exchange-correlation gradient    ... done

------------------
CARTESIAN GRADIENT
------------------

   1   H   :   -0.000000015   -0.000000017   -1.431707178
   2   O   :    0.000000020    0.000000038   -0.000000036
   3   H   :   -0.000000015   -0.000000017    1.431707210

Difference to translation invariance:
           :   -0.0000000101    0.0000000035   -0.0000000040

Difference to rotation invariance:
           :    0.0000000000   -0.0000000000   -0.0000000000

Norm of the cartesian gradient     ...    2.0247397314
RMS gradient                       ...    0.6749132438
MAX gradient                       ...    1.4317072103

-------
TIMINGS
-------

Total SCF gradient time            ...        0.205 sec

One electron gradient       ....       0.001 sec  (  0.4%)
RI-J Coulomb gradient       ....       0.040 sec  ( 19.6%)
COSX gradient               ....       0.047 sec  ( 22.8%)
XC gradient                 ....       0.024 sec  ( 11.5%)

Maximum memory used throughout the entire SCFGRAD-calculation: 32.6 MB
------------------------------------------------------------------------------
                         ORCA GEOMETRY RELAXATION STEP
------------------------------------------------------------------------------

Reading the OPT-File                    .... done
Getting information on internals        .... done
Copying old internal coords+grads       .... done
Making the new internal coordinates     .... (new redundants).... done
Validating the new internal coordinates .... (new redundants).... done
Calculating the B-matrix                .... done
Calculating the G,G- and P matrices     .... done
Transforming gradient to internals      .... done
Projecting the internal gradient        .... done
Number of atoms                         ....   3
Number of internal coordinates          ....   4
Current Energy                          ....   -75.691067792 Eh
Current gradient norm                   ....     2.024739731 Eh/bohr
Maximum allowed component of the step   ....  0.300
Current trust radius                    ....  0.300
Updating the Hessian (BFGS)             .... done
Forming the augmented Hessian           .... done
Diagonalizing the augmented Hessian     .... done
Last element of RFO vector              ....  0.977038191
Lowest eigenvalues of augmented Hessian:
 -0.441538163  0.589339114  0.589339114  2.817522493
Length of the computed step             ....  0.218071565
The final length of the internal step   ....  0.218071565
Converting the step to cartesian space:
 Initial RMS(Int)=    0.1090357827
Transforming coordinates:
 Iter   0:  RMS(Cart)=    0.0726905218 RMS(Int)=    0.1090357827
 Iter   1:  RMS(Cart)=    0.0000000014 RMS(Int)=    0.0000000258
done
Storing new coordinates                 .... done

                                .--------------------.
          ----------------------|Geometry convergence|-------------------------
          Item                value                   Tolerance       Converged
          ---------------------------------------------------------------------
          Energy change      -0.9528973116            0.0000050000      NO
          RMS gradient        1.0123698657            0.0001000000      NO
          MAX gradient        1.4317072117            0.0003000000      NO
          RMS step            0.1090357827            0.0020000000      NO
          MAX step            0.1541998974            0.0040000000      NO
          ........................................................
          Max(Bonds)      0.0816      Max(Angles)    0.00
          Max(Dihed)        0.00      Max(Improp)    0.00
          ---------------------------------------------------------------------

The optimization has not yet converged - more geometry cycles are needed


    ---------------------------------------------------------------------------
                         Redundant Internal Coordinates
                            (Angstroem and degrees)

        Definition                    Value    dE/dq     Step     New-Value
    ----------------------------------------------------------------------------
     1. B(O   1,H   0)                0.6123 -1.431707  0.0816    0.6939   
     2. B(H   2,O   1)                0.6123 -1.431707  0.0816    0.6939   
     3. L(H   0,O   1,H   2, 2)       180.00  0.000000    0.00    180.00   
     4. L(H   0,O   1,H   2, 1)       180.00  0.000000   -0.00    180.00   
    ----------------------------------------------------------------------------

         *************************************************************
         *                GEOMETRY OPTIMIZATION CYCLE   3            *
         *************************************************************
---------------------------------
CARTESIAN COORDINATES (ANGSTROEM)
---------------------------------
  H      0.000000    0.000000    0.693854
  O     -0.000000   -0.000000    0.000000
  H      0.000000    0.000000   -0.693855

----------------------------
CARTESIAN COORDINATES (A.U.)
----------------------------
  NO LB      ZA    FRAG     MASS         X           Y           Z
   0 H     1.0000    0     1.008    0.000000    0.000000    1.311195
   1 O     8.0000    0    15.999   -0.000000   -0.000000    0.000000
   2 H     1.0000    0     1.008    0.000000    0.000000   -1.311195

--------------------------------
INTERNAL COORDINATES (ANGSTROEM)
--------------------------------
 H      0   0   0     0.000000000000     0.00000000     0.00000000
 O      1   0   0     0.693854494342     0.00000000     0.00000000
 H      2   1   0     0.693854507943   179.99999744     0.00000000

---------------------------
INTERNAL COORDINATES (A.U.)
---------------------------
 H      0   0   0     0.000000000000     0.00000000     0.00000000
 O      1   0   0     1.311194971097     0.00000000     0.00000000
 H      2   1   0     1.311194996799   179.99999744     0.00000000



           ************************************************************
           *        Program running with 6 parallel MPI-processes     *
           *              working on a common directory               *
           ************************************************************
------------------------------------------------------------------------------
                   ___                                                        
                  /   \      - P O W E R E D   B Y -                         
                 /     \                                                     
                 |  |  |   _    _      __       _____    __    __             
                 |  |  |  | |  | |    /  \     |  _  \  |  |  /  |          
                  \  \/   | |  | |   /    \    | | | |  |  | /  /          
                 / \  \   | |__| |  /  /\  \   | |_| |  |  |/  /          
                |  |  |   |  __  | /  /__\  \  |    /   |      \           
                |  |  |   | |  | | |   __   |  |    \   |  |\   \          
                \     /   | |  | | |  |  |  |  | |\  \  |  | \   \       
                 \___/    |_|  |_| |__|  |__|  |_| \__\ |__|  \__/        
                                                                              
                      - O R C A' S   B I G   F R I E N D -                    
                                      &                                       
                       - I N T E G R A L  F E E D E R -                       
                                                                              
 v1 FN, 2020, v2 2021                                                         
------------------------------------------------------------------------------


Reading SHARK input file /gpfs/scratch/uam77/uam121718/12043988/asdf.SHARKINP.tmp ... ok
----------------------
SHARK INTEGRAL PACKAGE
----------------------

Number of atoms                             ...      3
Number of basis functions                   ...     24
Number of shells                            ...     12
Maximum angular momentum                    ...      2
Integral batch strategy                     ... SHARK/LIBINT Hybrid
RI-J (if used) integral strategy            ... SPLIT-RIJ (Revised 2003 algorithm where possible)
Printlevel                                  ...      1
Contraction scheme used                     ... SEGMENTED contraction
Coulomb Range Separation                    ... NOT USED
Exchange Range Separation                   ... NOT USED
Finite Nucleus Model                        ... NOT USED
Auxiliary Coulomb fitting basis             ... AVAILABLE
   # of basis functions in Aux-J            ...     71
   # of shells in Aux-J                     ...     25
   Maximum angular momentum in Aux-J        ...      4
Auxiliary J/K fitting basis                 ... NOT available
Auxiliary Correlation fitting basis         ... NOT available
Auxiliary 'external' fitting basis          ... NOT available
Integral threshold                          ...     2.500000e-11
Primitive cut-off                           ...     2.500000e-12
Primitive pair pre-selection threshold      ...     2.500000e-12

Calculating pre-screening integrals         ... done (  0.0 sec) Dimension = 12
Organizing shell pair data                  ... done (  0.0 sec)
Shell pair information
Total number of shell pairs                 ...        78
Shell pairs after pre-screening             ...        78
Total number of primitive shell pairs       ...       272
Primitive shell pairs kept                  ...       271
          la=0 lb=0:     28 shell pairs
          la=1 lb=0:     28 shell pairs
          la=1 lb=1:     10 shell pairs
          la=2 lb=0:      7 shell pairs
          la=2 lb=1:      4 shell pairs
          la=2 lb=2:      1 shell pairs

Calculating one electron integrals          ... done (  0.0 sec)
Calculating RI/J V-Matrix + Cholesky decomp.... done (  0.0 sec)
Calculating Nuclear repulsion               ... done (  0.0 sec) ENN=     12.583940757857 Eh

SHARK setup successfully completed in   0.1 seconds

Maximum memory used throughout the entire GTOINT-calculation: 8.7 MB


           ************************************************************
           *        Program running with 6 parallel MPI-processes     *
           *              working on a common directory               *
           ************************************************************

Diagonalization of the overlap matrix:
Smallest eigenvalue                        ... 1.380e-02
Time for diagonalization                   ...    0.000 sec
Threshold for overlap eigenvalues          ... 1.000e-08
Number of eigenvalues below threshold      ... 0
Time for construction of square roots      ...    0.001 sec
Total time needed                          ...    0.002 sec

-------------------
DFT GRID GENERATION
-------------------

General Integration Accuracy     IntAcc      ... 4.388
Radial Grid Type                 RadialGrid  ... OptM3 with GC (2021)
Angular Grid (max. ang.)         AngularGrid ... 4 (Lebedev-302)
Angular grid pruning method      GridPruning ... 4 (adaptive)
Weight generation scheme         WeightScheme... Becke
Basis function cutoff            BFCut       ... 1.0000e-11
Integration weight cutoff        WCut        ... 1.0000e-14
Angular grids for H and He will be reduced by one unit
Partially contracted basis set               ... off
Rotationally invariant grid construction     ... off

Total number of grid points                  ...    12696
Total number of batches                      ...      199
Average number of points per batch           ...       63
Average number of grid points per atom       ...     4232
Time for grid setup =    0.040 sec

--------------------
COSX GRID GENERATION
--------------------

GRIDX 1
-------
General Integration Accuracy     IntAcc      ... 3.816
Radial Grid Type                 RadialGrid  ... OptM3 with GC (2021)
Angular Grid (max. ang.)         AngularGrid ... 1 (Lebedev-50)
Angular grid pruning method      GridPruning ... 4 (adaptive)
Weight generation scheme         WeightScheme... Becke
Basis function cutoff            BFCut       ... 1.0000e-11
Integration weight cutoff        WCut        ... 1.0000e-14
Angular grids for H and He will be reduced by one unit
Partially contracted basis set               ... on
Rotationally invariant grid construction     ... off

Total number of grid points                  ...     1640
Total number of batches                      ...       27
Average number of points per batch           ...       60
Average number of grid points per atom       ...      547
UseSFitting                                  ... on

GRIDX 2
-------
General Integration Accuracy     IntAcc      ... 4.020
Radial Grid Type                 RadialGrid  ... OptM3 with GC (2021)
Angular Grid (max. ang.)         AngularGrid ... 2 (Lebedev-110)
Angular grid pruning method      GridPruning ... 4 (adaptive)
Weight generation scheme         WeightScheme... Becke
Basis function cutoff            BFCut       ... 1.0000e-11
Integration weight cutoff        WCut        ... 1.0000e-14
Angular grids for H and He will be reduced by one unit
Partially contracted basis set               ... on
Rotationally invariant grid construction     ... off

Total number of grid points                  ...     3486
Total number of batches                      ...       56
Average number of points per batch           ...       62
Average number of grid points per atom       ...     1162
UseSFitting                                  ... on

GRIDX 3
-------
General Integration Accuracy     IntAcc      ... 4.338
Radial Grid Type                 RadialGrid  ... OptM3 with GC (2021)
Angular Grid (max. ang.)         AngularGrid ... 3 (Lebedev-194)
Angular grid pruning method      GridPruning ... 4 (adaptive)
Weight generation scheme         WeightScheme... Becke
Basis function cutoff            BFCut       ... 1.0000e-11
Integration weight cutoff        WCut        ... 1.0000e-14
Angular grids for H and He will be reduced by one unit
Partially contracted basis set               ... on
Rotationally invariant grid construction     ... off

Total number of grid points                  ...     7726
Total number of batches                      ...      122
Average number of points per batch           ...       63
Average number of grid points per atom       ...     2575
UseSFitting                                  ... on

Time for X-Grid setup             =    0.029 sec

--------------
SCF ITERATIONS
--------------
ITER       Energy         Delta-E        Max-DP      RMS-DP      [F,P]     Damp
               ***  Starting incremental Fock matrix formation  ***
  0    -76.0062705227   0.000000000000 0.02302162  0.00297490  0.1343909 0.7000
  1    -76.0098180592  -0.003547536467 0.01903263  0.00233360  0.0955241 0.7000
                               ***Turning on DIIS***
  2    -76.0121488566  -0.002330797361 0.04613156  0.00545708  0.0674086 0.0000
  3    -76.0173551952  -0.005206338644 0.00768215  0.00078048  0.0087808 0.0000
  4    -76.0174214913  -0.000066296065 0.00293270  0.00026981  0.0054577 0.0000
                      *** Initiating the SOSCF procedure ***
                           *** Shutting down DIIS ***
                      *** Re-Reading the Fockian *** 
                      *** Removing any level shift *** 
ITER      Energy       Delta-E        Grad      Rot      Max-DP    RMS-DP
  5    -76.01744226  -0.0000207731  0.000202  0.000202  0.000416  0.000039
               *** Restarting incremental Fock matrix formation ***
  6    -76.01750615  -0.0000638852  0.000054  0.000022  0.000077  0.000008
  7    -76.01750615  -0.0000000043  0.000004  0.000004  0.000010  0.000001
  8    -76.01750615  -0.0000000001  0.000004  0.000002  0.000005  0.000000
                 **** Energy Check signals convergence ****
              ***Rediagonalizing the Fockian in SOSCF/NRSCF***

               *****************************************************
               *                     SUCCESS                       *
               *           SCF CONVERGED AFTER   9 CYCLES          *
               *****************************************************

Old exchange energy                            =     -1.857089022 Eh
New exchange energy                            =     -1.857045626 Eh
Exchange energy change after final integration =      0.000043396 Eh
Total energy after final integration           =    -76.017462758 Eh
Final COS-X integration done in                =     0.020 sec
Total Energy       :          -76.01746276 Eh           -2068.54032 eV
  Last Energy change         ...   -5.1401e-11  Tolerance :   1.0000e-08
  Last MAX-Density change    ...    1.3323e-15  Tolerance :   1.0000e-07
             **** THE GBW FILE WAS UPDATED (/gpfs/scratch/uam77/uam121718/12043988/asdf.gbw) ****
             **** DENSITY /gpfs/scratch/uam77/uam121718/12043988/asdf.scfp WAS UPDATED ****
             **** ENERGY FILE WAS UPDATED (/gpfs/scratch/uam77/uam121718/12043988/asdf.en.tmp) ****
             **** THE GBW FILE WAS UPDATED (/gpfs/scratch/uam77/uam121718/12043988/asdf.gbw) ****
             **** DENSITY /gpfs/scratch/uam77/uam121718/12043988/asdf.scfp WAS UPDATED ****
Total SCF time: 0 days 0 hours 0 min 0 sec 

Maximum memory used throughout the entire SCF-calculation: 43.0 MB

-------------------------   --------------------
FINAL SINGLE POINT ENERGY       -76.017462757819
-------------------------   --------------------



           ************************************************************
           *        Program running with 6 parallel MPI-processes     *
           *              working on a common directory               *
           ************************************************************
------------------------------------------------------------------------------
                         ORCA SCF GRADIENT CALCULATION
------------------------------------------------------------------------------

 ... reading COSX grid (gridx3)
Gradient of the Kohn-Sham DFT energy:
Kohn-Sham wavefunction type      ... RKS
Hartree-Fock exchange scaling    ...    0.200
Number of operators              ...    1
Number of atoms                  ...    3
Basis set dimensions             ...   24
Integral neglect threshold       ... 2.5e-11
Integral primitive cutoff        ... 2.5e-12
SHARK Integral package           ... ON

Nuc. rep. gradient       (SHARK) ... done (  0.0 sec)
HCore & Overlap gradient (SHARK) ... done (  0.0 sec)
RI-J gradient            (SHARK) ... done (  0.0 sec)
COSX-gradient                    ... done (  0.0 sec)
Exchange-correlation gradient    ... done

------------------
CARTESIAN GRADIENT
------------------

   1   H   :   -0.000000014   -0.000000015   -0.748582998
   2   O   :    0.000000026    0.000000037    0.000000064
   3   H   :   -0.000000014   -0.000000015    0.748582925

Difference to translation invariance:
           :   -0.0000000012    0.0000000069   -0.0000000090

Difference to rotation invariance:
           :    0.0000000002    0.0000000000   -0.0000000000

Norm of the cartesian gradient     ...    1.0586561765
RMS gradient                       ...    0.3528853922
MAX gradient                       ...    0.7485829978

-------
TIMINGS
-------

Total SCF gradient time            ...        0.204 sec

One electron gradient       ....       0.001 sec  (  0.4%)
RI-J Coulomb gradient       ....       0.039 sec  ( 19.2%)
COSX gradient               ....       0.047 sec  ( 23.0%)
XC gradient                 ....       0.017 sec  (  8.5%)

Maximum memory used throughout the entire SCFGRAD-calculation: 32.6 MB
------------------------------------------------------------------------------
                         ORCA GEOMETRY RELAXATION STEP
------------------------------------------------------------------------------

Reading the OPT-File                    .... done
Getting information on internals        .... done
Copying old internal coords+grads       .... done
Making the new internal coordinates     .... (new redundants).... done
Validating the new internal coordinates .... (new redundants).... done
Calculating the B-matrix                .... done
Calculating the G,G- and P matrices     .... done
Transforming gradient to internals      .... done
Projecting the internal gradient        .... done
Number of atoms                         ....   3
Number of internal coordinates          ....   4
Current Energy                          ....   -76.017462758 Eh
Current gradient norm                   ....     1.058656176 Eh/bohr
Maximum allowed component of the step   ....  0.300
Current trust radius                    ....  0.300
Updating the Hessian (BFGS)             .... done
Forming the augmented Hessian           .... done
Diagonalizing the augmented Hessian     .... done
Last element of RFO vector              ....  0.975255981
Lowest eigenvalues of augmented Hessian:
 -0.239984463  0.589339114  0.589339114  2.817522493
Length of the computed step             ....  0.226687822
The final length of the internal step   ....  0.226687822
Converting the step to cartesian space:
 Initial RMS(Int)=    0.1133439111
Transforming coordinates:
 Iter   0:  RMS(Cart)=    0.0755626074 RMS(Int)=    0.1133439111
 Iter   1:  RMS(Cart)=    0.0000000046 RMS(Int)=    0.0000000090
done
Storing new coordinates                 .... done

                                .--------------------.
[...]
   Becke's b parameter  XBeta           ....  0.004200
 Correlation Functional Correlation     .... LYP
 LDA part of GGA corr.  LDAOpt          .... VWN-5
 Gradients option       PostSCFGGA      .... off
 Hybrid DFT is turned on
   Fraction HF Exchange ScalHFX         ....  0.200000
   Scaling of DF-GGA-X  ScalDFX         ....  0.720000
   Scaling of DF-GGA-C  ScalDFC         ....  0.810000
   Scaling of DF-LDA-C  ScalLDAC        ....  1.000000
   Perturbative correction              ....  0.000000
   Density functional embedding theory  .... OFF
   NL short-range parameter             ....  4.800000
 RI-approximation to the Coulomb term is turned on
   Number of AuxJ basis functions       .... 71
   RIJ-COSX (HFX calculated with COS-X)).... on


General Settings:
 Integral files         IntName         .... /gpfs/scratch/uam77/uam121718/12043988/asdf
 Hartree-Fock type      HFTyp           .... RHF
 Total Charge           Charge          ....    0
 Multiplicity           Mult            ....    1
 Number of Electrons    NEL             ....   10
 Basis Dimension        Dim             ....   24
 Nuclear Repulsion      ENuc            ....      9.3119271894 Eh

Convergence Acceleration:
 DIIS                   CNVDIIS         .... on
   Start iteration      DIISMaxIt       ....    12
   Startup error        DIISStart       ....  0.200000
   # of expansion vecs  DIISMaxEq       ....     5
   Bias factor          DIISBfac        ....   1.050
   Max. coefficient     DIISMaxC        ....  10.000
 Trust-Rad. Augm. Hess. CNVTRAH         .... auto
   Auto Start mean grad. ratio tolernc. ....  1.125000
   Auto Start start iteration           ....     1
   Auto Start num. interpolation iter.  ....    10
   Max. Number of Micro iterations      ....    16
   Max. Number of Macro iterations      .... Maxiter - #DIIS iter
   Number of Davidson start vectors     ....     2
   Converg. threshold I  (grad. norm)   ....   1.000e-05
   Converg. threshold II (energy diff.) ....   1.000e-08
   Grad. Scal. Fac. for Micro threshold ....   0.100
   Minimum threshold for Micro iter.    ....   0.010
   NR start threshold (gradient norm)   ....   0.001
   Initial trust radius                 ....   0.400
   Minimum AH scaling param. (alpha)    ....   1.000
   Maximum AH scaling param. (alpha)    .... 1000.000
   Orbital update algorithm             .... Taylor
   White noise on init. David. guess    .... on
   Maximum white noise                  ....   0.010
   Quad. conv. algorithm                .... NR
 SOSCF                  CNVSOSCF        .... on
   Start iteration      SOSCFMaxIt      ....   150
   Startup grad/error   SOSCFStart      ....  0.003300
 Level Shifting         CNVShift        .... on
   Level shift para.    LevelShift      ....    0.2500
   Turn off err/grad.   ShiftErr        ....    0.0010
 Zerner damping         CNVZerner       .... off
 Static damping         CNVDamp         .... on
   Fraction old density DampFac         ....    0.7000
   Max. Damping (<1)    DampMax         ....    0.9800
   Min. Damping (>=0)   DampMin         ....    0.0000
   Turn off err/grad.   DampErr         ....    0.1000
 Fernandez-Rico         CNVRico         .... off

SCF Procedure:
 Maximum # iterations   MaxIter         ....   125
 SCF integral mode      SCFMode         .... Direct
   Integral package                     .... SHARK and LIBINT hybrid scheme
 Reset frequency        DirectResetFreq ....    20
 Integral Threshold     Thresh          ....  2.500e-11 Eh
 Primitive CutOff       TCut            ....  2.500e-12 Eh

Convergence Tolerance:
 Convergence Check Mode ConvCheckMode   .... Total+1el-Energy
 Convergence forced     ConvForced      .... 0
 Energy Change          TolE            ....  1.000e-08 Eh
 1-El. energy change                    ....  1.000e-05 Eh
 Orbital Gradient       TolG            ....  1.000e-05
 Orbital Rotation angle TolX            ....  1.000e-05
 DIIS Error             TolErr          ....  5.000e-07


Diagonalization of the overlap matrix:
Smallest eigenvalue                        ... 4.674e-02
Time for diagonalization                   ...    0.000 sec
Threshold for overlap eigenvalues          ... 1.000e-08
Number of eigenvalues below threshold      ... 0
Time for construction of square roots      ...    0.001 sec
Total time needed                          ...    0.002 sec

---------------------
INITIAL GUESS: MOREAD
---------------------
Guess MOs are being read from file: /gpfs/scratch/uam77/uam121718/12043988/asdf.gbw
Input Geometry matches current geometry (good)
Input basis set matches current basis set (good)
MOs were renormalized
MOs were reorthogonalized (Cholesky)
                      ------------------
                      INITIAL GUESS DONE (   0.0 sec)
                      ------------------
-------------------
DFT GRID GENERATION
-------------------

General Integration Accuracy     IntAcc      ... 4.388
Radial Grid Type                 RadialGrid  ... OptM3 with GC (2021)
Angular Grid (max. ang.)         AngularGrid ... 4 (Lebedev-302)
Angular grid pruning method      GridPruning ... 4 (adaptive)
Weight generation scheme         WeightScheme... Becke
Basis function cutoff            BFCut       ... 1.0000e-11
Integration weight cutoff        WCut        ... 1.0000e-14
Angular grids for H and He will be reduced by one unit
Partially contracted basis set               ... off
Rotationally invariant grid construction     ... off

Total number of grid points                  ...    12730
Total number of batches                      ...      201
Average number of points per batch           ...       63
Average number of grid points per atom       ...     4243
Time for grid setup =    0.054 sec

--------------------
COSX GRID GENERATION
--------------------

GRIDX 1
-------
General Integration Accuracy     IntAcc      ... 3.816
Radial Grid Type                 RadialGrid  ... OptM3 with GC (2021)
Angular Grid (max. ang.)         AngularGrid ... 1 (Lebedev-50)
Angular grid pruning method      GridPruning ... 4 (adaptive)
Weight generation scheme         WeightScheme... Becke
Basis function cutoff            BFCut       ... 1.0000e-11
Integration weight cutoff        WCut        ... 1.0000e-14
Angular grids for H and He will be reduced by one unit
Partially contracted basis set               ... on
Rotationally invariant grid construction     ... off

Total number of grid points                  ...     1646
Total number of batches                      ...       28
Average number of points per batch           ...       58
Average number of grid points per atom       ...      549
UseSFitting                                  ... on

GRIDX 2
-------
General Integration Accuracy     IntAcc      ... 4.020
Radial Grid Type                 RadialGrid  ... OptM3 with GC (2021)
Angular Grid (max. ang.)         AngularGrid ... 2 (Lebedev-110)
Angular grid pruning method      GridPruning ... 4 (adaptive)
Weight generation scheme         WeightScheme... Becke
Basis function cutoff            BFCut       ... 1.0000e-11
Integration weight cutoff        WCut        ... 1.0000e-14
Angular grids for H and He will be reduced by one unit
Partially contracted basis set               ... on
Rotationally invariant grid construction     ... off

Total number of grid points                  ...     3492
Total number of batches                      ...       56
Average number of points per batch           ...       62
Average number of grid points per atom       ...     1164
UseSFitting                                  ... on

GRIDX 3
-------
General Integration Accuracy     IntAcc      ... 4.338
Radial Grid Type                 RadialGrid  ... OptM3 with GC (2021)
Angular Grid (max. ang.)         AngularGrid ... 3 (Lebedev-194)
Angular grid pruning method      GridPruning ... 4 (adaptive)
Weight generation scheme         WeightScheme... Becke
Basis function cutoff            BFCut       ... 1.0000e-11
Integration weight cutoff        WCut        ... 1.0000e-14
Angular grids for H and He will be reduced by one unit
Partially contracted basis set               ... on
Rotationally invariant grid construction     ... off

Total number of grid points                  ...     7748
Total number of batches                      ...      122
Average number of points per batch           ...       63
Average number of grid points per atom       ...     2583
UseSFitting                                  ... on

Time for X-Grid setup             =    0.036 sec

--------------
SCF ITERATIONS
--------------
ITER       Energy         Delta-E        Max-DP      RMS-DP      [F,P]     Damp
               ***  Starting incremental Fock matrix formation  ***
                      *** Initiating the SOSCF procedure ***
                      *** Re-Reading the Fockian *** 
                      *** Removing any level shift *** 
ITER      Energy       Delta-E        Grad      Rot      Max-DP    RMS-DP
  0    -76.27230329 -76.2723032941  0.000020  0.000020  0.000020  0.000002
               *** Restarting incremental Fock matrix formation ***
  1    -76.27230329  -0.0000000003  0.000006  0.000005  0.000011  0.000001
  2    -76.27230329  -0.0000000002  0.000006  0.000002  0.000006  0.000001
                 **** Energy Check signals convergence ****
              ***Rediagonalizing the Fockian in SOSCF/NRSCF***

               *****************************************************
               *                     SUCCESS                       *
               *           SCF CONVERGED AFTER   3 CYCLES          *
               *****************************************************

Old exchange energy                            =     -1.793626343 Eh
New exchange energy                            =     -1.793657749 Eh
Exchange energy change after final integration =     -0.000031407 Eh
Total energy after final integration           =    -76.272334701 Eh
Final COS-X integration done in                =     0.028 sec

----------------
TOTAL SCF ENERGY
----------------

Total Energy       :          -76.27233470 Eh           -2075.47574 eV

Components:
Nuclear Repulsion  :            9.31192719 Eh             253.39042 eV
Electronic Energy  :          -85.58426189 Eh           -2328.86616 eV
One Electron Energy:         -123.51284908 Eh           -3360.95549 eV
Two Electron Energy:           37.92858719 Eh            1032.08933 eV
Max COSX asymmetry :            0.00000073 Eh               0.00002 eV

Virial components:
Potential Energy   :         -152.00774525 Eh           -4136.34104 eV
Kinetic Energy     :           75.73541054 Eh            2060.86529 eV
Virial Ratio       :            2.00708947


DFT components:
N(Alpha)           :        4.999999398158 electrons
N(Beta)            :        4.999999398158 electrons
N(Total)           :        9.999998796315 electrons
E(X)               :       -7.137369196131 Eh       
E(C)               :       -0.404379786717 Eh       
E(XC)              :       -7.541748982848 Eh       
DFET-embed. en.    :        0.000000000000 Eh       

---------------
SCF CONVERGENCE
---------------

  Last Energy change         ...    3.8938e-11  Tolerance :   1.0000e-08
  Last MAX-Density change    ...    4.4409e-16  Tolerance :   1.0000e-07
  Last RMS-Density change    ...    4.0694e-17  Tolerance :   5.0000e-09
  Last Orbital Gradient      ...    6.5711e-08  Tolerance :   1.0000e-05
  Last Orbital Rotation      ...    4.1049e-08  Tolerance :   1.0000e-05

             **** THE GBW FILE WAS UPDATED (/gpfs/scratch/uam77/uam121718/12043988/asdf.gbw) ****
             **** DENSITY /gpfs/scratch/uam77/uam121718/12043988/asdf.scfp WAS UPDATED ****
             **** ENERGY FILE WAS UPDATED (/gpfs/scratch/uam77/uam121718/12043988/asdf.en.tmp) ****
             **** THE GBW FILE WAS UPDATED (/gpfs/scratch/uam77/uam121718/12043988/asdf.gbw) ****
             **** DENSITY /gpfs/scratch/uam77/uam121718/12043988/asdf.scfp WAS UPDATED ****
----------------
ORBITAL ENERGIES
----------------

  NO   OCC          E(Eh)            E(eV) 
   0   2.0000     -19.072530      -518.9899 
   1   2.0000      -0.938611       -25.5409 
   2   2.0000      -0.579576       -15.7711 
   3   2.0000      -0.267874        -7.2892 
   4   2.0000      -0.267874        -7.2892 
   5   0.0000       0.048822         1.3285 
   6   0.0000       0.137979         3.7546 
   7   0.0000       0.435083        11.8392 
   8   0.0000       0.790230        21.5033 
   9   0.0000       0.940477        25.5917 
  10   0.0000       0.940477        25.5917 
  11   0.0000       1.091972        29.7141 
  12   0.0000       1.273519        34.6542 
  13   0.0000       1.273519        34.6542 
  14   0.0000       1.454616        39.5821 
  15   0.0000       1.757771        47.8314 
  16   0.0000       1.757771        47.8314 
  17   0.0000       2.163453        58.8705 
  18   0.0000       2.678075        72.8741 
  19   0.0000       2.678194        72.8774 
  20   0.0000       2.720704        74.0341 
  21   0.0000       3.258405        88.6657 
  22   0.0000       3.258405        88.6657 
  23   0.0000       4.280341       116.4740 

                    ********************************
                    * MULLIKEN POPULATION ANALYSIS *
                    ********************************

-----------------------
MULLIKEN ATOMIC CHARGES
-----------------------
   0 H :    0.201688
   1 O :   -0.403375
   2 H :    0.201688
Sum of atomic charges:    0.0000000

--------------------------------
MULLIKEN REDUCED ORBITAL CHARGES
--------------------------------
  0 H s       :     0.724641  s :     0.724641
      pz      :     0.034000  p :     0.073671
      px      :     0.019836
      py      :     0.019836
  1 O s       :     3.530743  s :     3.530743
      pz      :     0.948310  p :     4.868968
      px      :     1.960329
      py      :     1.960329
      dz2     :     0.003664  d :     0.003664
      dxz     :     0.000000
      dyz     :     0.000000
      dx2y2   :     0.000000
      dxy     :     0.000000
  2 H s       :     0.724641  s :     0.724641
      pz      :     0.034000  p :     0.073671
      px      :     0.019836
      py      :     0.019836


                     *******************************
                     * LOEWDIN POPULATION ANALYSIS *
                     *******************************

----------------------
LOEWDIN ATOMIC CHARGES
----------------------
   0 H :    0.086206
   1 O :   -0.172413
   2 H :    0.086206

-------------------------------
LOEWDIN REDUCED ORBITAL CHARGES
-------------------------------
  0 H s       :     0.704762  s :     0.704762
      pz      :     0.092497  p :     0.209031
      px      :     0.058267
      py      :     0.058267
  1 O s       :     3.237773  s :     3.237773
      pz      :     1.165272  p :     4.932204
      px      :     1.883466
      py      :     1.883466
      dz2     :     0.002436  d :     0.002436
      dxz     :     0.000000
      dyz     :     0.000000
      dx2y2   :     0.000000
      dxy     :     0.000000
  2 H s       :     0.704762  s :     0.704762
      pz      :     0.092497  p :     0.209031
      px      :     0.058267
      py      :     0.058267


                      *****************************
                      * MAYER POPULATION ANALYSIS *
                      *****************************

  NA   - Mulliken gross atomic population
  ZA   - Total nuclear charge
  QA   - Mulliken gross atomic charge
  VA   - Mayer's total valence
  BVA  - Mayer's bonded valence
  FA   - Mayer's free valence

  ATOM       NA         ZA         QA         VA         BVA        FA
  0 H      0.7983     1.0000     0.2017     1.0032     1.0032     0.0000
  1 O      8.4034     8.0000    -0.4034     1.8663     1.8663     0.0000
  2 H      0.7983     1.0000     0.2017     1.0032     1.0032     0.0000

  Mayer bond orders larger than 0.100000
B(  0-H ,  1-O ) :   0.9332 B(  1-O ,  2-H ) :   0.9332 

-------
TIMINGS
-------

Total SCF time: 0 days 0 hours 0 min 0 sec 

Total time                  ....       0.445 sec
Sum of individual times     ....       0.376 sec  ( 84.6%)

Fock matrix formation       ....       0.274 sec  ( 61.6%)
  Split-RI-J                ....       0.099 sec  ( 36.1% of F)
  Chain of spheres X        ....       0.109 sec  ( 39.8% of F)
  XC integration            ....       0.054 sec  ( 19.8% of F)
    Basis function eval.    ....       0.005 sec  (  8.5% of XC)
    Density eval.           ....       0.004 sec  (  7.3% of XC)
    XC-Functional eval.     ....       0.004 sec  (  7.8% of XC)
    XC-Potential eval.      ....       0.002 sec  (  3.1% of XC)
Diagonalization             ....       0.001 sec  (  0.2%)
Density matrix formation    ....       0.000 sec  (  0.1%)
Population analysis         ....       0.005 sec  (  1.2%)
Initial guess               ....       0.001 sec  (  0.3%)
Orbital Transformation      ....       0.000 sec  (  0.0%)
Orbital Orthonormalization  ....       0.000 sec  (  0.0%)
DIIS solution               ....       0.001 sec  (  0.2%)
SOSCF solution              ....       0.004 sec  (  0.8%)
Grid generation             ....       0.090 sec  ( 20.2%)

Maximum memory used throughout the entire SCF-calculation: 43.0 MB

-------------------------   --------------------
FINAL SINGLE POINT ENERGY       -76.272334701079
-------------------------   --------------------

                                *** OPTIMIZATION RUN DONE ***

                            ***************************************
                            *     ORCA property calculations      *
                            ***************************************

                                    ---------------------
                                    Active property flags
                                    ---------------------
   (+) Dipole Moment


------------------------------------------------------------------------------
                       ORCA ELECTRIC PROPERTIES CALCULATION
------------------------------------------------------------------------------

Dipole Moment Calculation                       ... on
Quadrupole Moment Calculation                   ... off
Polarizability Calculation                      ... off
GBWName                                         ... /gpfs/scratch/uam77/uam121718/12043988/asdf.gbw
Electron density                                ... /gpfs/scratch/uam77/uam121718/12043988/asdf.scfp
The origin for moment calculation is the CENTER OF MASS  = (-0.000000, -0.000000 -0.000000)

-------------
DIPOLE MOMENT
-------------
                                X             Y             Z
Electronic contribution:      0.00000       0.00000      -0.00000
Nuclear contribution   :      0.00000       0.00000       0.00000
                        -----------------------------------------
Total Dipole Moment    :      0.00000       0.00000      -0.00000
                        -----------------------------------------
Magnitude (a.u.)       :      0.00000
Magnitude (Debye)      :      0.00000



--------------------
Rotational spectrum 
--------------------
 
Rotational constants in cm-1:     0.000000     9.510763     9.510763 
Rotational constants in MHz :     0.000000 285125.506115 285125.506115 

 Dipole components along the rotational axes: 
x,y,z [a.u.] :     0.000000     0.000000     0.000000 
x,y,z [Debye]:     0.000000     0.000001     0.000000 

 

Timings for individual modules:

Sum of individual times         ...       31.241 sec (=   0.521 min)
GTO integral calculation        ...        8.694 sec (=   0.145 min)  27.8 %
SCF iterations                  ...       13.422 sec (=   0.224 min)  43.0 %
SCF Gradient evaluation         ...        8.760 sec (=   0.146 min)  28.0 %
Geometry relaxation             ...        0.364 sec (=   0.006 min)   1.2 %
                             ****ORCA TERMINATED NORMALLY****
TOTAL RUN TIME: 0 days 0 hours 0 minutes 38 seconds 645 msec
