panoramix.ccc.uam.es
/temporal/fmatar/slurm_tmp_6245335

                                 *****************
                                 * O   R   C   A *
                                 *****************

                                            #,                                       
                                            ###                                      
                                            ####                                     
                                            #####                                    
                                            ######                                   
                                           ########,                                 
                                     ,,################,,,,,                         
                               ,,#################################,,                 
                          ,,##########################################,,             
                       ,#########################################, ''#####,          
                    ,#############################################,,   '####,        
                  ,##################################################,,,,####,       
                ,###########''''           ''''###############################       
              ,#####''   ,,,,##########,,,,          '''####'''          '####       
            ,##' ,,,,###########################,,,                        '##       
           ' ,,###''''                  '''############,,,                           
         ,,##''                                '''############,,,,        ,,,,,,###''
      ,#''                                            '''#######################'''  
     '                                                          ''''####''''         
             ,#######,   #######,   ,#######,      ##                                
            ,#'     '#,  ##    ##  ,#'     '#,    #''#        ######   ,####,        
            ##       ##  ##   ,#'  ##            #'  '#       #        #'  '#        
            ##       ##  #######   ##           ,######,      #####,   #    #        
            '#,     ,#'  ##    ##  '#,     ,#' ,#      #,         ##   #,  ,#        
             '#######'   ##     ##  '#######'  #'      '#     #####' # '####'        



                  #######################################################
                  #                        -***-                        #
                  #          Department of theory and spectroscopy      #
                  #    Directorship and core code : Frank Neese         #
                  #        Max Planck Institute fuer Kohlenforschung    #
                  #                Kaiser Wilhelm Platz 1               #
                  #                 D-45470 Muelheim/Ruhr               #
                  #                      Germany                        #
                  #                                                     #
                  #                  All rights reserved                #
                  #                        -***-                        #
                  #######################################################


                         Program Version 5.0.3 -  RELEASE  -


 With contributions from (in alphabetic order):
   Daniel Aravena         : Magnetic Suceptibility
   Michael Atanasov       : Ab Initio Ligand Field Theory (pilot matlab implementation)
   Alexander A. Auer      : GIAO ZORA, VPT2 properties, NMR spectrum
   Ute Becker             : Parallelization
   Giovanni Bistoni       : ED, misc. LED, open-shell LED, HFLD
   Martin Brehm           : Molecular dynamics
   Dmytro Bykov           : SCF Hessian
   Vijay G. Chilkuri      : MRCI spin determinant printing, contributions to CSF-ICE
   Dipayan Datta          : RHF DLPNO-CCSD density
   Achintya Kumar Dutta   : EOM-CC, STEOM-CC
   Dmitry Ganyushin       : Spin-Orbit,Spin-Spin,Magnetic field MRCI
   Miquel Garcia          : C-PCM and meta-GGA Hessian, CC/C-PCM, Gaussian charge scheme
   Yang Guo               : DLPNO-NEVPT2, F12-NEVPT2, CIM, IAO-localization
   Andreas Hansen         : Spin unrestricted coupled pair/coupled cluster methods
   Benjamin Helmich-Paris : MC-RPA, TRAH-SCF, COSX integrals
   Lee Huntington         : MR-EOM, pCC
   Robert Izsak           : Overlap fitted RIJCOSX, COSX-SCS-MP3, EOM
   Marcus Kettner         : VPT2
   Christian Kollmar      : KDIIS, OOCD, Brueckner-CCSD(T), CCSD density, CASPT2, CASPT2-K
   Simone Kossmann        : Meta GGA functionals, TD-DFT gradient, OOMP2, MP2 Hessian
   Martin Krupicka        : Initial AUTO-CI
   Lucas Lang             : DCDCAS
   Marvin Lechner         : AUTO-CI (C++ implementation), FIC-MRCC
   Dagmar Lenk            : GEPOL surface, SMD
   Dimitrios Liakos       : Extrapolation schemes; Compound Job, initial MDCI parallelization
   Dimitrios Manganas     : Further ROCIS development; embedding schemes
   Dimitrios Pantazis     : SARC Basis sets
   Anastasios Papadopoulos: AUTO-CI, single reference methods and gradients
   Taras Petrenko         : DFT Hessian,TD-DFT gradient, ASA, ECA, R-Raman, ABS, FL, XAS/XES, NRVS
   Peter Pinski           : DLPNO-MP2, DLPNO-MP2 Gradient
   Christoph Reimann      : Effective Core Potentials
   Marius Retegan         : Local ZFS, SOC
   Christoph Riplinger    : Optimizer, TS searches, QM/MM, DLPNO-CCSD(T), (RO)-DLPNO pert. Triples
   Tobias Risthaus        : Range-separated hybrids, TD-DFT gradient, RPA, STAB
   Michael Roemelt        : Original ROCIS implementation
   Masaaki Saitow         : Open-shell DLPNO-CCSD energy and density
   Barbara Sandhoefer     : DKH picture change effects
   Avijit Sen             : IP-ROCIS
   Kantharuban Sivalingam : CASSCF convergence, NEVPT2, FIC-MRCI
   Bernardo de Souza      : ESD, SOC TD-DFT
   Georgi Stoychev        : AutoAux, RI-MP2 NMR, DLPNO-MP2 response
   Willem Van den Heuvel  : Paramagnetic NMR
   Boris Wezisla          : Elementary symmetry handling
   Frank Wennmohs         : Technical directorship


 We gratefully acknowledge several colleagues who have allowed us to
 interface, adapt or use parts of their codes:
   Stefan Grimme, W. Hujo, H. Kruse, P. Pracht,  : VdW corrections, initial TS optimization,
                  C. Bannwarth, S. Ehlert          DFT functionals, gCP, sTDA/sTD-DF
   Ed Valeev, F. Pavosevic, A. Kumar             : LibInt (2-el integral package), F12 methods
   Garnet Chan, S. Sharma, J. Yang, R. Olivares  : DMRG
   Ulf Ekstrom                                   : XCFun DFT Library
   Mihaly Kallay                                 : mrcc  (arbitrary order and MRCC methods)
   Jiri Pittner, Ondrej Demel                    : Mk-CCSD
   Frank Weinhold                                : gennbo (NPA and NBO analysis)
   Christopher J. Cramer and Donald G. Truhlar   : smd solvation model
   Lars Goerigk                                  : TD-DFT with DH, B97 family of functionals
   V. Asgeirsson, H. Jonsson                     : NEB implementation
   FAccTs GmbH                                   : IRC, NEB, NEB-TS, DLPNO-Multilevel, CI-OPT
                                                   MM, QMMM, 2- and 3-layer-ONIOM, Crystal-QMMM,
                                                   LR-CPCM, SF, NACMEs, symmetry and pop. for TD-DFT,
                                                   nearIR, NL-DFT gradient (VV10), updates on ESD,
                                                   ML-optimized integration grids
   S Lehtola, MJT Oliveira, MAL Marques          : LibXC Library
   Liviu Ungur et al                             : ANISO software


 Your calculation uses the libint2 library for the computation of 2-el integrals
 For citations please refer to: http://libint.valeyev.net

 Your ORCA version has been built with support for libXC version: 5.1.0
 For citations please refer to: https://tddft.org/programs/libxc/

 This ORCA versions uses:
   CBLAS   interface :  Fast vector & matrix operations
   LAPACKE interface :  Fast linear algebra routines
   SCALAPACK package :  Parallel linear algebra routines
   Shared memory     :  Shared parallel matrices
   BLAS/LAPACK       :  OpenBLAS 0.3.15  USE64BITINT DYNAMIC_ARCH NO_AFFINITY Sandybridge SINGLE_THREADED
        Core in use  :  Sandybridge
   Copyright (c) 2011-2014, The OpenBLAS Project


Your calculation utilizes the atom-pairwise dispersion correction
with the zero-damping scheme (D30)
Cite in your paper:
S.Grimme, J.Antony, S.Ehrlich and H.Krieg, J.Chem.Phys., 132, (2010), 154104 
   

XCFun DFT library Copyright 2009-2010 Ulf Ekstrom and contributors.
See http://admol.org/xcfun for more information.
This is free software; see the source code for copying conditions.
There is ABSOLUTELY NO WARRANTY; not even for MERCHANTABILITY or FITNESS FOR A PARTICULAR PURPOSE.
For details see the documentation.
Scientific users of this library should cite U. Ekstrom, L. Visscher, R. Bast, A. J. Thorvaldsen and K. Ruud;
J.Chem.Theor.Comp. 2010, DOI: 10.1021/ct100117s
XCFun Version 0.99 

================================================================================

----- Orbital basis set information -----
Your calculation utilizes the basis: cc-pVDZ 
       H, B-Ne : Obtained from the ccRepo (grant-hill.group.shef.ac.uk/ccrepo) Feb. 2017
                 T. H. Dunning, Jr., J. Chem. Phys. 90, 1007 (1989)
            He : Obtained from the ccRepo (grant-hill.group.shef.ac.uk/ccrepo) Feb. 2017
                 D. E. Woon, T. H. Dunning, Jr., J. Chem. Phys. 100, 2975 (1994)
  Li-Be, Na-Mg : Obtained from the ccRepo (grant-hill.group.shef.ac.uk/ccrepo) Feb. 2017
                 B. P. Prascher, D. E. Woon, K. A. Peterson, T. H. Dunning, Jr., A. K. Wilson, Theor. Chem. Acc. 128, 69 (2011)
         Al-Ar : Obtained from the ccRepo (grant-hill.group.shef.ac.uk/ccrepo) Feb. 2017
                 D. E. Woon, T. H. Dunning, Jr., J. Chem. Phys. 98, 1358 (1993)
            Ca : Obtained from the Peterson Research Group Website (tyr0.chem.wsu.edu/~kipeters) Feb. 2017
                 J. Koput, K. A. Peterson, J. Phys. Chem. 106, 9595 (2002)
         Sc-Zn : Obtained from the ccRepo (grant-hill.group.shef.ac.uk/ccrepo) Feb. 2017
                 N. B. Balabanov, K. A. Peterson, J. Chem. Phys. 123, 064107 (2005)
                 N. B. Balabanov, K. A. Peterson, J. Chem. Phys. 125, 074110 (2006)
         Ga-Kr : Obtained from the ccRepo (grant-hill.group.shef.ac.uk/ccrepo) Feb. 2017
                 A. K. Wilson, D. E. Woon, K. A. Peterson, T. H. Dunning, Jr., J. Chem. Phys. 110, 7667 (1999)

----- AuxJ basis set information -----
Your calculation utilizes the auxiliary basis: def2/J
   F. Weigend, Phys. Chem. Chem. Phys. 8, 1057 (2006).

================================================================================
                                        WARNINGS
                       Please study these warnings very carefully!
================================================================================

INFO   : Checking CIS options ...

WARNING: Geometry Optimization
  ===> : Switching off AutoStart
         For restart on a previous wavefunction, please use MOREAD

WARNING: CIS/ROCIS methods need fully converged wavefunctions
  ===> : Setting SCFConvForced true
         You can overwrite this default with %scf ConvForced false 


INFO   : the flag for use of the SHARK integral package has been found!

================================================================================
                                       INPUT FILE
================================================================================
NAME = calcyn_opt_iroot_2.in
|  1> ! wB97x-D3 cc-pvdz opt 
|  2> 
|  3> %tddft
|  4>  nroots 10
|  5>  tda TRUE
|  6>  IRoot 2
|  7> end
|  8> 
|  9> *xyz 0 1 
| 10>  C    -1.984740     0.794106    -0.021524
| 11>  C    -2.838475     1.841678     0.081520
| 12>  C    -0.527088     0.785060     0.038111
| 13>  C    -2.376788    -0.615742    -0.217535
| 14>  C    -4.313726     1.911387     0.039093
| 15>  O    -2.346433     3.080298     0.258183
| 16>  C    -0.156560    -0.552710    -0.113631
| 17>  C     0.458919     1.755271     0.205109
| 18>  O    -1.258556    -1.379171    -0.266564
| 19>  O    -3.476969    -1.121595    -0.329143
| 20>  C    -4.680109     3.216729     0.197713
| 21>  O    -5.105055     0.872203    -0.123838
| 22>  C    -3.433260     3.985285     0.336892
| 23>  C     1.152398    -0.987497    -0.108542
| 24>  C     1.792094     1.341694     0.214865
| 25>  C    -6.026900     3.809775     0.234947
| 26>  O    -3.199090     5.144664     0.492355
| 27>  C     2.132854    -0.004732     0.060791
| 28>  C    -7.169665     2.991350     0.246262
| 29>  C    -6.197791     5.203853     0.258613
| 30>  C    -8.441108     3.555088     0.279446
| 31>  C    -7.473361     5.758156     0.290102
| 32>  C    -8.600541     4.939199     0.300428
| 33>  H     0.188458     2.803980     0.325503
| 34>  H    -4.572385     0.033002    -0.220746
| 35>  H     1.397008    -2.042320    -0.230438
| 36>  H     2.581365     2.083432     0.347606
| 37>  H     3.183743    -0.299540     0.073185
| 38>  H    -7.060246     1.908289     0.229395
| 39>  H    -5.322888     5.852493     0.257171
| 40>  H    -9.317114     2.903242     0.288820
| 41>  H    -7.584816     6.844257     0.307513
| 42>  H    -9.599945     5.378427     0.325720
| 43> *
| 44> 
| 45>                          ****END OF INPUT****
================================================================================

                       *****************************
                       * Geometry Optimization Run *
                       *****************************

Geometry optimization settings:
Update method            Update   .... BFGS
Choice of coordinates    CoordSys .... Z-matrix Internals
Initial Hessian          InHess   .... Almoef's Model

Convergence Tolerances:
Energy Change            TolE     ....  5.0000e-06 Eh
Max. Gradient            TolMAXG  ....  3.0000e-04 Eh/bohr
RMS Gradient             TolRMSG  ....  1.0000e-04 Eh/bohr
Max. Displacement        TolMAXD  ....  4.0000e-03 bohr
RMS Displacement         TolRMSD  ....  2.0000e-03 bohr
Strict Convergence                ....  False
------------------------------------------------------------------------------
                        ORCA OPTIMIZATION COORDINATE SETUP
------------------------------------------------------------------------------

The optimization will be done in new redundant internal coordinates
Making redundant internal coordinates   ...  (new redundants) done
Evaluating the initial hessian          ...  (Almloef) done
Evaluating the coordinates              ...  done
Calculating the B-matrix                .... done
Calculating the G-matrix                .... done
Diagonalizing the G-matrix              .... done
Small eigenvalue found = 3.053e-03
Small eigenvalue found = 1.425e-02
Small eigenvalue found = 1.687e-02
The first mode is                       ....   86
The number of degrees of freedom        ....   93

    -----------------------------------------------------------------
                    Redundant Internal Coordinates


    -----------------------------------------------------------------
         Definition                    Initial Value    Approx d2E/dq
    -----------------------------------------------------------------
      1. B(C   1,C   0)                  1.3553         0.709693   
      2. B(C   2,C   0)                  1.4589         0.485081   
      3. B(C   3,C   0)                  1.4764         0.454855   
      4. B(C   4,C   1)                  1.4775         0.453031   
      5. B(O   5,C   1)                  1.3444         0.661573   
      6. B(C   6,C   2)                  1.3964         0.610268   
      7. B(C   7,C   2)                  1.3933         0.617168   
      8. B(O   8,C   6)                  1.3859         0.568012   
      9. B(O   8,C   3)                  1.3549         0.636685   
     10. B(O   9,C   3)                  1.2160         1.060291   
     11. B(C  10,C   4)                  1.3650         0.684813   
     12. B(O  11,C   4)                  1.3163         0.733594   
     13. B(C  12,C  10)                  1.4713         0.463503   
     14. B(C  12,O   5)                  1.4165         0.507742   
     15. B(C  13,C   6)                  1.3793         0.649872   
     16. B(C  14,C   7)                  1.3959         0.611432   
     17. B(C  15,C  10)                  1.4721         0.462201   
     18. B(O  16,C  12)                  1.1930         1.154073   
     19. B(C  17,C  14)                  1.3974         0.608046   
     20. B(C  17,C  13)                  1.3985         0.605594   
     21. B(C  18,C  15)                  1.4057         0.589883   
     22. B(C  19,C  15)                  1.4047         0.591924   
     23. B(C  20,C  18)                  1.3912         0.622022   
     24. B(C  21,C  19)                  1.3912         0.622143   
     25. B(C  22,C  21)                  1.3933         0.617229   
     26. B(C  22,C  20)                  1.3934         0.616993   
     27. B(H  23,C   7)                  1.0897         0.360504   
     28. B(H  24,O  11)                  0.9987         0.451061   
     29. B(H  25,C  13)                  1.0897         0.360559   
     30. B(H  26,C  14)                  1.0912         0.358500   
     31. B(H  27,C  17)                  1.0915         0.358085   
     32. B(H  28,C  18)                  1.0887         0.361817   
     33. B(H  29,C  19)                  1.0891         0.361261   
     34. B(H  30,C  20)                  1.0920         0.357516   
     35. B(H  31,C  21)                  1.0919         0.357538   
     36. B(H  32,C  22)                  1.0920         0.357521   
     37. A(C   2,C   0,C   3)          105.3562         0.393322   
     38. A(C   1,C   0,C   3)          125.5147         0.420693   
     39. A(C   1,C   0,C   2)          129.1284         0.425559   
     40. A(C   4,C   1,O   5)          109.0100         0.412483   
     41. A(C   0,C   1,C   4)          131.5472         0.420392   
     42. A(C   0,C   1,O   5)          119.4427         0.447076   
     43. A(C   0,C   2,C   6)          105.4630         0.414255   
     44. A(C   0,C   2,C   7)          135.0425         0.415084   
     45. A(C   6,C   2,C   7)          119.4940         0.432476   
     46. A(C   0,C   3,O   9)          130.5158         0.449256   
     47. A(C   0,C   3,O   8)          108.8873         0.409980   
     48. A(O   8,C   3,O   9)          120.5968         0.474549   
     49. A(C   1,C   4,O  11)          124.5110         0.420138   
     50. A(C   1,C   4,C  10)          108.0458         0.417726   
     51. A(C  10,C   4,O  11)          127.4432         0.452600   
     52. A(C   1,O   5,C  12)          108.3673         0.418208   
     53. A(O   8,C   6,C  13)          124.5423         0.428102   
     54. A(C   2,C   6,O   8)          111.8568         0.423311   
     55. A(C   2,C   6,C  13)          123.6008         0.436514   
     56. A(C   2,C   7,C  14)          118.0599         0.432625   
     57. A(C   2,C   7,H  23)          120.5128         0.352703   
     58. A(C  14,C   7,H  23)          121.4272         0.352146   
     59. A(C   3,O   8,C   6)          108.4364         0.423755   
     60. A(C  12,C  10,C  15)          124.2291         0.391298   
     61. A(C   4,C  10,C  15)          129.3280         0.419220   
     62. A(C   4,C  10,C  12)          106.4428         0.419431   
     63. A(C   4,O  11,H  24)          110.7785         0.371781   
     64. A(C  10,C  12,O  16)          133.3411         0.457802   
     65. A(O   5,C  12,O  16)          118.5253         0.462393   
     66. A(O   5,C  12,C  10)          108.1336         0.395256   
     67. A(C   6,C  13,C  17)          116.3759         0.435910   
     68. A(C  17,C  13,H  25)          122.4410         0.351584   
     69. A(C   6,C  13,H  25)          121.1831         0.355812   
     70. A(C   7,C  14,C  17)          121.1716         0.431469   
     71. A(C  17,C  14,H  26)          119.4706         0.351484   
     72. A(C   7,C  14,H  26)          119.3576         0.351814   
     73. A(C  10,C  15,C  18)          120.6263         0.408253   
     74. A(C  18,C  15,C  19)          118.6065         0.426639   
     75. A(C  10,C  15,C  19)          120.7671         0.408503   
     76. A(C  13,C  17,C  14)          121.2978         0.430726   
     77. A(C  14,C  17,H  27)          119.5879         0.351415   
     78. A(C  13,C  17,H  27)          119.1143         0.351175   
     79. A(C  20,C  18,H  28)          119.6918         0.353388   
     80. A(C  15,C  18,H  28)          119.8273         0.350232   
     81. A(C  15,C  18,C  20)          120.4809         0.430450   
     82. A(C  21,C  19,H  29)          119.9533         0.353308   
     83. A(C  15,C  19,H  29)          119.5579         0.350346   
     84. A(C  15,C  19,C  21)          120.4881         0.430732   
     85. A(C  22,C  20,H  30)          120.0690         0.352189   
     86. A(C  18,C  20,H  30)          119.4380         0.352673   
     87. A(C  18,C  20,C  22)          120.4930         0.433941   
     88. A(C  22,C  21,H  31)          120.1283         0.352216   
     89. A(C  19,C  21,H  31)          119.3580         0.352689   
     90. A(C  19,C  21,C  22)          120.5136         0.433986   
     91. A(C  21,C  22,H  32)          120.2761         0.352213   
     92. A(C  20,C  22,H  32)          120.3062         0.352190   
     93. A(C  20,C  22,C  21)          119.4177         0.433337   
     94. D(O   5,C   1,C   0,C   3)   -179.9499         0.035557   
     95. D(O   5,C   1,C   0,C   2)      0.3798         0.035557   
     96. D(C   4,C   1,C   0,C   3)      0.1791         0.035557   
     97. D(C   4,C   1,C   0,C   2)   -179.4913         0.035557   
     98. D(C   7,C   2,C   0,C   1)     -0.1489         0.016021   
     99. D(C   6,C   2,C   0,C   1)    179.5833         0.016021   
    100. D(C   7,C   2,C   0,C   3)   -179.8707         0.016021   
    101. D(C   6,C   2,C   0,C   3)     -0.1385         0.016021   
    102. D(O   9,C   3,C   0,C   2)   -179.9223         0.014098   
    103. D(O   8,C   3,C   0,C   1)   -179.6629         0.014098   
    104. D(O   8,C   3,C   0,C   2)      0.0720         0.014098   
    105. D(O   9,C   3,C   0,C   1)      0.3429         0.014098   
    106. D(C  10,C   4,C   1,O   5)     -0.1433         0.013987   
    107. D(O  11,C   4,C   1,C   0)     -0.1986         0.013987   
    108. D(C  10,C   4,C   1,C   0)    179.7379         0.013987   
    109. D(O  11,C   4,C   1,O   5)    179.9202         0.013987   
    110. D(C  12,O   5,C   1,C   0)   -179.8967         0.032442   
    111. D(C  12,O   5,C   1,C   4)      0.0012         0.032442   
    112. D(C  13,C   6,C   2,C   7)      0.0229         0.025723   
    113. D(O   8,C   6,C   2,C   7)    179.9463         0.025723   
    114. D(O   8,C   6,C   2,C   0)      0.1637         0.025723   
    115. D(C  13,C   6,C   2,C   0)   -179.7597         0.025723   
    116. D(H  23,C   7,C   2,C   6)   -179.9678         0.026342   
    117. D(H  23,C   7,C   2,C   0)     -0.2644         0.026342   
    118. D(C  14,C   7,C   2,C   6)     -0.0626         0.026342   
    119. D(C  14,C   7,C   2,C   0)    179.6408         0.026342   
    120. D(C   3,O   8,C   6,C  13)    179.8006         0.023410   
    121. D(C   3,O   8,C   6,C   2)     -0.1220         0.023410   
    122. D(C   6,O   8,C   3,O   9)   -179.9795         0.029860   
    123. D(C   6,O   8,C   3,C   0)      0.0256         0.029860   
    124. D(C  12,C  10,C   4,C   1)      0.2153         0.032910   
    125. D(C  15,C  10,C   4,O  11)      0.2551         0.032910   
    126. D(C  15,C  10,C   4,C   1)   -179.6789         0.032910   
    127. D(C  12,C  10,C   4,O  11)   -179.8506         0.032910   
    128. D(H  24,O  11,C   4,C  10)    179.6967         0.040681   
    129. D(H  24,O  11,C   4,C   1)     -0.3794         0.040681   
    130. D(O  16,C  12,C  10,C  15)     -0.2913         0.014632   
    131. D(O  16,C  12,C  10,C   4)    179.8077         0.014632   
    132. D(O   5,C  12,C  10,C  15)    179.6821         0.014632   
    133. D(O   5,C  12,C  10,C   4)     -0.2189         0.014632   
    134. D(O  16,C  12,O   5,C   1)   -179.8909         0.018536   
    135. D(C  10,C  12,O   5,C   1)      0.1311         0.018536   
    136. D(H  25,C  13,C   6,O   8)      0.0907         0.029405   
    137. D(H  25,C  13,C   6,C   2)   -179.9956         0.029405   
    138. D(C  17,C  13,C   6,O   8)   -179.8902         0.029405   
    139. D(C  17,C  13,C   6,C   2)      0.0234         0.029405   
    140. D(H  26,C  14,C   7,H  23)      0.1092         0.025827   
    141. D(H  26,C  14,C   7,C   2)   -179.7950         0.025827   
    142. D(C  17,C  14,C   7,H  23)    179.9620         0.025827   
    143. D(C  17,C  14,C   7,C   2)      0.0577         0.025827   
    144. D(C  19,C  15,C  10,C  12)      7.3051         0.014551   
    145. D(C  19,C  15,C  10,C   4)   -172.8176         0.014551   
    146. D(C  18,C  15,C  10,C  12)   -172.7563         0.014551   
    147. D(C  18,C  15,C  10,C   4)      7.1210         0.014551   
    148. D(H  27,C  17,C  14,H  26)     -0.1016         0.025525   
    149. D(H  27,C  17,C  14,C   7)   -179.9541         0.025525   
    150. D(C  13,C  17,C  14,H  26)    179.8411         0.025525   
    151. D(C  13,C  17,C  14,C   7)     -0.0114         0.025525   
    152. D(H  27,C  17,C  13,H  25)     -0.0667         0.025308   
    153. D(H  27,C  17,C  13,C   6)    179.9140         0.025308   
    154. D(C  14,C  17,C  13,H  25)    179.9903         0.025308   
    155. D(C  14,C  17,C  13,C   6)     -0.0290         0.025308   
    156. D(C  20,C  18,C  15,C  10)   -179.9032         0.023945   
    157. D(H  28,C  18,C  15,C  19)   -179.9366         0.023945   
    158. D(H  28,C  18,C  15,C  10)      0.1235         0.023945   
    159. D(C  20,C  18,C  15,C  19)      0.0367         0.023945   
    160. D(H  29,C  19,C  15,C  18)    179.5828         0.024120   
    161. D(H  29,C  19,C  15,C  10)     -0.4774         0.024120   
    162. D(C  21,C  19,C  15,C  18)     -0.1152         0.024120   
    163. D(C  21,C  19,C  15,C  10)    179.8247         0.024120   
    164. D(H  30,C  20,C  18,H  28)      0.0361         0.026784   
    165. D(H  30,C  20,C  18,C  15)   -179.9372         0.026784   
    166. D(C  22,C  20,C  18,H  28)   -179.9539         0.026784   
    167. D(C  22,C  20,C  18,C  15)      0.0728         0.026784   
    168. D(H  31,C  21,C  19,H  29)      0.3412         0.026795   
    169. D(H  31,C  21,C  19,C  15)   -179.9621         0.026795   
    170. D(C  22,C  21,C  19,H  29)   -179.6115         0.026795   
    171. D(C  22,C  21,C  19,C  15)      0.0852         0.026795   
    172. D(H  32,C  22,C  21,H  31)      0.0139         0.026348   
    173. D(H  32,C  22,C  21,C  19)    179.9663         0.026348   
    174. D(C  20,C  22,C  21,H  31)   -179.9272         0.026348   
    175. D(C  20,C  22,C  21,C  19)      0.0252         0.026348   
    176. D(H  32,C  22,C  20,H  30)     -0.0350         0.026327   
    177. D(H  32,C  22,C  20,C  18)    179.9549         0.026327   
    178. D(C  21,C  22,C  20,H  30)    179.9061         0.026327   
    179. D(C  21,C  22,C  20,C  18)     -0.1040         0.026327   
    -----------------------------------------------------------------

Number of atoms                         .... 33
Number of degrees of freedom            .... 179

         *************************************************************
         *                GEOMETRY OPTIMIZATION CYCLE   1            *
         *************************************************************
---------------------------------
CARTESIAN COORDINATES (ANGSTROEM)
---------------------------------
  C     -1.984740    0.794106   -0.021524
  C     -2.838475    1.841678    0.081520
  C     -0.527088    0.785060    0.038111
  C     -2.376788   -0.615742   -0.217535
  C     -4.313726    1.911387    0.039093
  O     -2.346433    3.080298    0.258183
  C     -0.156560   -0.552710   -0.113631
  C      0.458919    1.755271    0.205109
  O     -1.258556   -1.379171   -0.266564
  O     -3.476969   -1.121595   -0.329143
  C     -4.680109    3.216729    0.197713
  O     -5.105055    0.872203   -0.123838
  C     -3.433260    3.985285    0.336892
  C      1.152398   -0.987497   -0.108542
  C      1.792094    1.341694    0.214865
  C     -6.026900    3.809775    0.234947
  O     -3.199090    5.144664    0.492355
  C      2.132854   -0.004732    0.060791
  C     -7.169665    2.991350    0.246262
  C     -6.197791    5.203853    0.258613
  C     -8.441108    3.555088    0.279446
  C     -7.473361    5.758156    0.290102
  C     -8.600541    4.939199    0.300428
  H      0.188458    2.803980    0.325503
  H     -4.572385    0.033002   -0.220746
  H      1.397008   -2.042320   -0.230438
  H      2.581365    2.083432    0.347606
  H      3.183743   -0.299540    0.073185
  H     -7.060246    1.908289    0.229395
  H     -5.322888    5.852493    0.257171
  H     -9.317114    2.903242    0.288820
  H     -7.584816    6.844257    0.307513
  H     -9.599945    5.378427    0.325720

----------------------------
CARTESIAN COORDINATES (A.U.)
----------------------------
  NO LB      ZA    FRAG     MASS         X           Y           Z
   0 C     6.0000    0    12.011   -3.750615    1.500643   -0.040674
   1 C     6.0000    0    12.011   -5.363940    3.480267    0.154050
   2 C     6.0000    0    12.011   -0.996052    1.483548    0.072019
   3 C     6.0000    0    12.011   -4.491478   -1.163584   -0.411082
   4 C     6.0000    0    12.011   -8.151761    3.611998    0.073875
   5 O     8.0000    0    15.999   -4.434116    5.820920    0.487895
   6 C     6.0000    0    12.011   -0.295856   -1.044471   -0.214731
   7 C     6.0000    0    12.011    0.867231    3.316981    0.387600
   8 O     8.0000    0    15.999   -2.378326   -2.606255   -0.503733
   9 O     8.0000    0    15.999   -6.570519   -2.119507   -0.621990
  10 C     6.0000    0    12.011   -8.844124    6.078737    0.373623
  11 O     8.0000    0    15.999   -9.647156    1.648225   -0.234020
  12 C     6.0000    0    12.011   -6.487921    7.531097    0.636634
  13 C     6.0000    0    12.011    2.177717   -1.866099   -0.205115
  14 C     6.0000    0    12.011    3.386567    2.535434    0.406036
  15 C     6.0000    0    12.011  -11.389190    7.199431    0.443985
  16 O     8.0000    0    15.999   -6.045404    9.722006    0.930416
  17 C     6.0000    0    12.011    4.030510   -0.008942    0.114878
  18 C     6.0000    0    12.011  -13.548703    5.652832    0.465368
  19 C     6.0000    0    12.011  -11.712128    9.833857    0.488708
  20 C     6.0000    0    12.011  -15.951382    6.718143    0.528076
  21 C     6.0000    0    12.011  -14.122606   10.881338    0.548213
  22 C     6.0000    0    12.011  -16.252667    9.333733    0.567727
  23 H     1.0000    0     1.008    0.356134    5.298754    0.615112
  24 H     1.0000    0     1.008   -8.640555    0.062365   -0.417149
  25 H     1.0000    0     1.008    2.639963   -3.859425   -0.435465
  26 H     1.0000    0     1.008    4.878073    3.937116    0.656880
  27 H     1.0000    0     1.008    6.016402   -0.566049    0.138300
  28 H     1.0000    0     1.008  -13.341931    3.606144    0.433494
  29 H     1.0000    0     1.008  -10.058801   11.059609    0.485983
  30 H     1.0000    0     1.008  -17.606794    5.486332    0.545791
  31 H     1.0000    0     1.008  -14.333225   12.933771    0.581115
  32 H     1.0000    0     1.008  -18.141267   10.163754    0.615522

--------------------------------
INTERNAL COORDINATES (ANGSTROEM)
--------------------------------
 C      0   0   0     0.000000000000     0.00000000     0.00000000
 C      1   0   0     1.355318638308     0.00000000     0.00000000
 C      1   2   0     1.458899419578   129.12842963     0.00000000
 C      1   2   3     1.476412316912   125.51470399   179.67037098
 C      2   1   3     1.477506314034   131.54721752   180.50872641
 O      2   1   3     1.344430976188   119.44269209     0.37977205
 C      3   1   2     1.396404384929   105.46298294   179.58325588
 C      3   1   2     1.393344006545   135.04254958   359.85106994
 O      4   1   2     1.354869176971   108.88733605   180.33712112
 O      4   1   2     1.216035293910   130.51581509     0.34288631
 C      5   2   1     1.365032799625   108.04576625   179.73788945
 O      5   2   1     1.316302200430   124.51104177   359.80141619
 C      6   2   1     1.416470792067   108.36734629   180.10328935
 C      7   3   1     1.379288468397   123.60077321   180.24029747
 C      8   3   1     1.395885631092   118.05987088   179.64081969
 C     11   5   2     1.472051604582   129.32802866   180.32107667
 O     13   6   2     1.192964374535   118.52525496   180.10911703
 C     15   8   3     1.397397276565   121.17161859     0.05768294
 C     16  11   5     1.405652643819   120.62632480     7.12098145
 C     16  11   5     1.404712527004   120.76713487   187.18238328
 C     19  16  11     1.391211347261   120.48086063   180.09680074
 C     20  16  11     1.391158581122   120.48809170   179.82465523
 C     22  20  16     1.393316886614   120.51364323     0.08517223
 H      8   3   1     1.089694651927   120.51282120   359.73562950
 H     12   5   2     0.998692549169   110.77852742   359.62064319
 H     14   7   3     1.089653269735   121.18308756   180.00437414
 H     15   8   3     1.091212236536   119.35758185   180.20495524
 H     18  15   8     1.091527855082   119.58790130   180.04587130
 H     19  16  11     1.088704800656   119.82734161     0.12351223
 H     20  16  11     1.089124046366   119.55792177   359.52256933
 H     21  19  16     1.091960435010   119.43797641   180.06276711
 H     22  20  16     1.091943561796   119.35803267   180.03793665
 H     23  22  20     1.091956627556   120.27606586   179.96631741

---------------------------
INTERNAL COORDINATES (A.U.)
---------------------------
 C      0   0   0     0.000000000000     0.00000000     0.00000000
 C      1   0   0     2.561181050601     0.00000000     0.00000000
 C      1   2   0     2.756920359939   129.12842963     0.00000000
 C      1   2   3     2.790014939712   125.51470399   179.67037098
 C      2   1   3     2.792082294664   131.54721752   180.50872641
 O      2   1   3     2.540606350955   119.44269209     0.37977205
 C      3   1   2     2.638821859722   105.46298294   179.58325588
 C      3   1   2     2.633038582710   135.04254958   359.85106994
 O      4   1   2     2.560331691766   108.88733605   180.33712112
 O      4   1   2     2.297973674672   130.51581509     0.34288631
 C      5   2   1     2.579538155112   108.04576625   179.73788945
 O      5   2   1     2.487450668291   124.51104177   359.80141619
 C      6   2   1     2.676741873705   108.36734629   180.10328935
 C      7   3   1     2.606477464947   123.60077321   180.24029747
 C      8   3   1     2.637841557040   118.05987088   179.64081969
 C     11   5   2     2.781774387660   129.32802866   180.32107667
 O     13   6   2     2.254375955396   118.52525496   180.10911703
 C     15   8   3     2.640698152996   121.17161859     0.05768294
 C     16  11   5     2.656298536240   120.62632480     7.12098145
 C     16  11   5     2.654521972925   120.76713487   187.18238328
 C     19  16  11     2.629008440728   120.48086063   180.09680074
 C     20  16  11     2.628908727175   120.48809170   179.82465523
 C     22  20  16     2.632987333469   120.51364323     0.08517223
 H      8   3   1     2.059224461740   120.51282120   359.73562950
 H     12   5   2     1.887255409916   110.77852742   359.62064319
 H     14   7   3     2.059146260732   121.18308756   180.00437414
 H     15   8   3     2.062092281037   119.35758185   180.20495524
 H     18  15   8     2.062688713652   119.58790130   180.04587130
 H     19  16  11     2.057353913925   119.82734161     0.12351223
 H     20  16  11     2.058146173500   119.55792177   359.52256933
 H     21  19  16     2.063506171247   119.43797641   180.06276711
 H     22  20  16     2.063474285492   119.35803267   180.03793665
 H     23  22  20     2.063498976202   120.27606586   179.96631741

---------------------
BASIS SET INFORMATION
---------------------
There are 3 groups of distinct atoms

 Group   1 Type C   : 17s4p1d contracted to 3s2p1d pattern {881/31/1}
 Group   2 Type O   : 17s4p1d contracted to 3s2p1d pattern {881/31/1}
 Group   3 Type H   : 4s1p contracted to 2s1p pattern {31/1}

Atom   0C    basis set group =>   1
Atom   1C    basis set group =>   1
Atom   2C    basis set group =>   1
Atom   3C    basis set group =>   1
Atom   4C    basis set group =>   1
Atom   5O    basis set group =>   2
Atom   6C    basis set group =>   1
Atom   7C    basis set group =>   1
Atom   8O    basis set group =>   2
Atom   9O    basis set group =>   2
Atom  10C    basis set group =>   1
Atom  11O    basis set group =>   2
Atom  12C    basis set group =>   1
Atom  13C    basis set group =>   1
Atom  14C    basis set group =>   1
Atom  15C    basis set group =>   1
Atom  16O    basis set group =>   2
Atom  17C    basis set group =>   1
Atom  18C    basis set group =>   1
Atom  19C    basis set group =>   1
Atom  20C    basis set group =>   1
Atom  21C    basis set group =>   1
Atom  22C    basis set group =>   1
Atom  23H    basis set group =>   3
Atom  24H    basis set group =>   3
Atom  25H    basis set group =>   3
Atom  26H    basis set group =>   3
Atom  27H    basis set group =>   3
Atom  28H    basis set group =>   3
Atom  29H    basis set group =>   3
Atom  30H    basis set group =>   3
Atom  31H    basis set group =>   3
Atom  32H    basis set group =>   3
---------------------------------
AUXILIARY/J BASIS SET INFORMATION
---------------------------------
There are 3 groups of distinct atoms

 Group   1 Type C   : 12s5p4d2f1g contracted to 6s4p3d1f1g pattern {711111/2111/211/2/1}
 Group   2 Type O   : 12s5p4d2f1g contracted to 6s4p3d1f1g pattern {711111/2111/211/2/1}
 Group   3 Type H   : 5s2p1d contracted to 3s1p1d pattern {311/2/1}

Atom   0C    basis set group =>   1
Atom   1C    basis set group =>   1
Atom   2C    basis set group =>   1
Atom   3C    basis set group =>   1
Atom   4C    basis set group =>   1
Atom   5O    basis set group =>   2
Atom   6C    basis set group =>   1
Atom   7C    basis set group =>   1
Atom   8O    basis set group =>   2
Atom   9O    basis set group =>   2
Atom  10C    basis set group =>   1
Atom  11O    basis set group =>   2
Atom  12C    basis set group =>   1
Atom  13C    basis set group =>   1
Atom  14C    basis set group =>   1
Atom  15C    basis set group =>   1
Atom  16O    basis set group =>   2
Atom  17C    basis set group =>   1
Atom  18C    basis set group =>   1
Atom  19C    basis set group =>   1
Atom  20C    basis set group =>   1
Atom  21C    basis set group =>   1
Atom  22C    basis set group =>   1
Atom  23H    basis set group =>   3
Atom  24H    basis set group =>   3
Atom  25H    basis set group =>   3
Atom  26H    basis set group =>   3
Atom  27H    basis set group =>   3
Atom  28H    basis set group =>   3
Atom  29H    basis set group =>   3
Atom  30H    basis set group =>   3
Atom  31H    basis set group =>   3
Atom  32H    basis set group =>   3
------------------------------------------------------------------------------
                           ORCA GTO INTEGRAL CALCULATION
                           -- RI-GTO INTEGRALS CHOSEN --
------------------------------------------------------------------------------
------------------------------------------------------------------------------
                   ___                                                        
                  /   \      - P O W E R E D   B Y -                         
                 /     \                                                     
                 |  |  |   _    _      __       _____    __    __             
                 |  |  |  | |  | |    /  \     |  _  \  |  |  /  |          
                  \  \/   | |  | |   /    \    | | | |  |  | /  /          
                 / \  \   | |__| |  /  /\  \   | |_| |  |  |/  /          
                |  |  |   |  __  | /  /__\  \  |    /   |      \           
                |  |  |   | |  | | |   __   |  |    \   |  |\   \          
                \     /   | |  | | |  |  |  |  | |\  \  |  | \   \       
                 \___/    |_|  |_| |__|  |__|  |_| \__\ |__|  \__/        
                                                                              
                      - O R C A' S   B I G   F R I E N D -                    
                                      &                                       
                       - I N T E G R A L  F E E D E R -                       
                                                                              
 v1 FN, 2020, v2 2021                                                         
------------------------------------------------------------------------------


Reading SHARK input file calcyn_opt_iroot_2.SHARKINP.tmp ... ok
----------------------
SHARK INTEGRAL PACKAGE
----------------------

Number of atoms                             ...     33
Number of basis functions                   ...    510
Number of shells                            ...    306
Maximum angular momentum                    ...      2
Integral batch strategy                     ... SHARK/LIBINT Hybrid
RI-J (if used) integral strategy            ... SPLIT-RIJ (Revised 2003 algorithm where possible)
Printlevel                                  ...      1
Contraction scheme used                     ... PARTIAL GENERAL contraction
Coulomb Range Separation                    ... NOT USED
Exchange Range Separation                   ... Long Range
   Mu parameter                             ...  0.250000
   Scaling (regular/separated)              ...  0.195728  0.804272
Finite Nucleus Model                        ... NOT USED
Auxiliary Coulomb fitting basis             ... AVAILABLE
   # of basis functions in Aux-J            ...   1237
   # of shells in Aux-J                     ...    395
   Maximum angular momentum in Aux-J        ...      4
Auxiliary J/K fitting basis                 ... NOT available
Auxiliary Correlation fitting basis         ... NOT available
Auxiliary 'external' fitting basis          ... NOT available
Integral threshold                          ...     2.500000e-11
Primitive cut-off                           ...     2.500000e-12
Primitive pair pre-selection threshold      ...     2.500000e-12

Calculating pre-screening integrals         ... done (  0.1 sec) Dimension = 306
Calculating pre-screening integrals (ORCA)  ... done (  0.5 sec) Dimension = 168
Organizing shell pair data                  ... done (  0.8 sec)
Shell pair information
Total number of shell pairs                 ...     46971
Shell pairs after pre-screening             ...     20319
Total number of primitive shell pairs       ...     69477
Primitive shell pairs kept                  ...     26524
          la=0 lb=0:   8275 shell pairs
          la=1 lb=0:   7274 shell pairs
          la=1 lb=1:   1165 shell pairs
          la=2 lb=0:   2551 shell pairs
          la=2 lb=1:    880 shell pairs
          la=2 lb=2:    174 shell pairs

Calculating one electron integrals          ... done (  0.1 sec)
Calculating RI/J V-Matrix + Cholesky decomp.... done (  0.1 sec)
Calculating Nuclear repulsion               ... done (  0.0 sec) ENN=   1758.569197926236 Eh

SHARK setup successfully completed in   2.4 seconds

Maximum memory used throughout the entire GTOINT-calculation: 83.7 MB
-------------------------------------------------------------------------------
                                 ORCA SCF
-------------------------------------------------------------------------------

------------
SCF SETTINGS
------------
Hamiltonian:
 Density Functional     Method          .... DFT(GTOs)
 Exchange Functional    Exchange        .... WB97X-D3
 Correlation Functional Correlation     .... WB97X-D3
 Gradients option       PostSCFGGA      .... off
 Hybrid DFT is turned on
   Fraction HF Exchange ScalHFX         ....  0.195728
   Scaling of DF-GGA-X  ScalDFX         ....  0.000000
   Scaling of DF-GGA-C  ScalDFC         ....  1.000000
   Scaling of DF-LDA-C  ScalLDAC        ....  1.000000
   Perturbative correction              ....  0.000000
   Density functional embedding theory  .... OFF
 Long-range corrected/Screened/Range-Separated Hybrid DFT is turned on
   Amount of maximum screened exact exchange              ....  0.804272
   Range separation parameter mu (erf(mu*r12)/r12)        ....  0.250000
 RI-approximation to the Coulomb term is turned on
   Number of AuxJ basis functions       .... 1237
   RIJ-COSX (HFX calculated with COS-X)).... on


General Settings:
 Integral files         IntName         .... calcyn_opt_iroot_2
 Hartree-Fock type      HFTyp           .... RHF
 Total Charge           Charge          ....    0
 Multiplicity           Mult            ....    1
 Number of Electrons    NEL             ....  158
 Basis Dimension        Dim             ....  372
 Nuclear Repulsion      ENuc            ....   1758.5691979262 Eh

Convergence Acceleration:
 DIIS                   CNVDIIS         .... on
   Start iteration      DIISMaxIt       ....    12
   Startup error        DIISStart       ....  0.200000
   # of expansion vecs  DIISMaxEq       ....     5
   Bias factor          DIISBfac        ....   1.050
   Max. coefficient     DIISMaxC        ....  10.000
 Trust-Rad. Augm. Hess. CNVTRAH         .... auto
   Auto Start mean grad. ratio tolernc. ....  1.125000
   Auto Start start iteration           ....    20
   Auto Start num. interpolation iter.  ....    10
   Max. Number of Micro iterations      ....    16
   Max. Number of Macro iterations      .... Maxiter - #DIIS iter
   Number of Davidson start vectors     ....     2
   Converg. threshold I  (grad. norm)   ....   1.000e-05
   Converg. threshold II (energy diff.) ....   1.000e-08
   Grad. Scal. Fac. for Micro threshold ....   0.100
   Minimum threshold for Micro iter.    ....   0.010
   NR start threshold (gradient norm)   ....   0.001
   Initial trust radius                 ....   0.400
   Minimum AH scaling param. (alpha)    ....   1.000
   Maximum AH scaling param. (alpha)    .... 1000.000
   Orbital update algorithm             .... Taylor
   White noise on init. David. guess    .... on
   Maximum white noise                  ....   0.010
   Quad. conv. algorithm                .... NR
 SOSCF                  CNVSOSCF        .... on
   Start iteration      SOSCFMaxIt      ....   150
   Startup grad/error   SOSCFStart      ....  0.003300
 Level Shifting         CNVShift        .... on
   Level shift para.    LevelShift      ....    0.2500
   Turn off err/grad.   ShiftErr        ....    0.0010
 Zerner damping         CNVZerner       .... off
 Static damping         CNVDamp         .... on
   Fraction old density DampFac         ....    0.7000
   Max. Damping (<1)    DampMax         ....    0.9800
   Min. Damping (>=0)   DampMin         ....    0.0000
   Turn off err/grad.   DampErr         ....    0.1000
 Fernandez-Rico         CNVRico         .... off

SCF Procedure:
 Maximum # iterations   MaxIter         ....   125
 SCF integral mode      SCFMode         .... Direct
   Integral package                     .... SHARK and LIBINT hybrid scheme
 Reset frequency        DirectResetFreq ....    20
 Integral Threshold     Thresh          ....  2.500e-11 Eh
 Primitive CutOff       TCut            ....  2.500e-12 Eh

Convergence Tolerance:
 Convergence Check Mode ConvCheckMode   .... Total+1el-Energy
 Convergence forced     ConvForced      .... 1
 Energy Change          TolE            ....  1.000e-08 Eh
 1-El. energy change                    ....  1.000e-05 Eh
 Orbital Gradient       TolG            ....  1.000e-05
 Orbital Rotation angle TolX            ....  1.000e-05
 DIIS Error             TolErr          ....  5.000e-07


Diagonalization of the overlap matrix:
Smallest eigenvalue                        ... 2.229e-04
Time for diagonalization                   ...    0.040 sec
Threshold for overlap eigenvalues          ... 1.000e-08
Number of eigenvalues below threshold      ... 0
Time for construction of square roots      ...    0.015 sec
Total time needed                          ...    0.056 sec

Time for model grid setup =    1.540 sec

------------------------------
INITIAL GUESS: MODEL POTENTIAL
------------------------------
Loading Hartree-Fock densities                     ... done
Calculating cut-offs                               ... done
Initializing the effective Hamiltonian             ... done
Setting up the integral package (SHARK)            ... done
Starting the Coulomb interaction                   ... done (   2.3 sec)
Reading the grid                                   ... done
Mapping shells                                     ... done
Starting the XC term evaluation                    ... done (   1.4 sec)
  promolecular density results
     # of electrons  =    157.993708770
     EX              =   -135.872555817
     EC              =     -5.366289873
     EX+EC           =   -141.238845690
Transforming the Hamiltonian                       ... done (   0.0 sec)
Diagonalizing the Hamiltonian                      ... done (   0.0 sec)
Back transforming the eigenvectors                 ... done (   0.0 sec)
Now organizing SCF variables                       ... done
                      ------------------
                      INITIAL GUESS DONE (   5.3 sec)
                      ------------------
-------------------
DFT GRID GENERATION
-------------------

General Integration Accuracy     IntAcc      ... 4.388
Radial Grid Type                 RadialGrid  ... OptM3 with GC (2021)
Angular Grid (max. ang.)         AngularGrid ... 4 (Lebedev-302)
Angular grid pruning method      GridPruning ... 4 (adaptive)
Weight generation scheme         WeightScheme... Becke
Basis function cutoff            BFCut       ... 1.0000e-11
Integration weight cutoff        WCut        ... 1.0000e-14
Angular grids for H and He will be reduced by one unit
Partially contracted basis set               ... off
Rotationally invariant grid construction     ... off

Total number of grid points                  ...   169691
Total number of batches                      ...     2667
Average number of points per batch           ...       63
Average number of grid points per atom       ...     5142
Time for grid setup =    4.952 sec

--------------------
COSX GRID GENERATION
--------------------

GRIDX 1
-------
General Integration Accuracy     IntAcc      ... 3.816
Radial Grid Type                 RadialGrid  ... OptM3 with GC (2021)
Angular Grid (max. ang.)         AngularGrid ... 1 (Lebedev-50)
Angular grid pruning method      GridPruning ... 4 (adaptive)
Weight generation scheme         WeightScheme... Becke
Basis function cutoff            BFCut       ... 1.0000e-11
Integration weight cutoff        WCut        ... 1.0000e-14
Angular grids for H and He will be reduced by one unit
Partially contracted basis set               ... on
Rotationally invariant grid construction     ... off

Total number of grid points                  ...    21571
Total number of batches                      ...      351
Average number of points per batch           ...       61
Average number of grid points per atom       ...      654
UseSFitting                                  ... on

GRIDX 2
-------
General Integration Accuracy     IntAcc      ... 4.020
Radial Grid Type                 RadialGrid  ... OptM3 with GC (2021)
Angular Grid (max. ang.)         AngularGrid ... 2 (Lebedev-110)
Angular grid pruning method      GridPruning ... 4 (adaptive)
Weight generation scheme         WeightScheme... Becke
Basis function cutoff            BFCut       ... 1.0000e-11
Integration weight cutoff        WCut        ... 1.0000e-14
Angular grids for H and He will be reduced by one unit
Partially contracted basis set               ... on
Rotationally invariant grid construction     ... off

Total number of grid points                  ...    48116
Total number of batches                      ...      769
Average number of points per batch           ...       62
Average number of grid points per atom       ...     1458
UseSFitting                                  ... on

GRIDX 3
-------
General Integration Accuracy     IntAcc      ... 4.338
Radial Grid Type                 RadialGrid  ... OptM3 with GC (2021)
Angular Grid (max. ang.)         AngularGrid ... 3 (Lebedev-194)
Angular grid pruning method      GridPruning ... 4 (adaptive)
Weight generation scheme         WeightScheme... Becke
Basis function cutoff            BFCut       ... 1.0000e-11
Integration weight cutoff        WCut        ... 1.0000e-14
Angular grids for H and He will be reduced by one unit
Partially contracted basis set               ... on
Rotationally invariant grid construction     ... off

Total number of grid points                  ...   105863
Total number of batches                      ...     1672
Average number of points per batch           ...       63
Average number of grid points per atom       ...     3208
UseSFitting                                  ... on

Time for X-Grid setup             =    7.197 sec

 re-compute Schwartz prescreening matrix in partically contracted basis (1) ...done (   0.181 sec)
--------------
SCF ITERATIONS
--------------
ITER       Energy         Delta-E        Max-DP      RMS-DP      [F,P]     Damp
               ***  Starting incremental Fock matrix formation  ***
  0  -1067.4055005198   0.000000000000 0.08027522  0.00154310  0.2370442 0.7000
  1  -1067.5969106334  -0.191410113619 0.04979904  0.00111676  0.1088781 0.7000
                               ***Turning on DIIS***
  2  -1067.6852239917  -0.088313358256 0.06881226  0.00216274  0.0403578 0.0000
  3  -1067.8362647476  -0.151040755899 0.03471200  0.00066591  0.0555239 0.0000
  4  -1067.8579934490  -0.021728701434 0.01032897  0.00015677  0.0126733 0.0000
  5  -1067.8590776674  -0.001084218316 0.00447956  0.00006863  0.0065188 0.0000
                      *** Initiating the SOSCF procedure ***
                           *** Shutting down DIIS ***
                      *** Re-Reading the Fockian *** 
                      *** Removing any level shift *** 
ITER      Energy       Delta-E        Grad      Rot      Max-DP    RMS-DP
  6  -1067.85927100  -0.0001933350  0.001421  0.001421  0.001803  0.000036
               *** Restarting incremental Fock matrix formation ***
  7  -1067.85947300  -0.0002019993  0.000811  0.002277  0.001004  0.000029
  8  -1067.85949742  -0.0000244212  0.000363  0.002421  0.001330  0.000028
  9  -1067.85950295  -0.0000055268  0.000264  0.000643  0.000637  0.000011
 10  -1067.85950556  -0.0000026140  0.000049  0.000192  0.000214  0.000004
 11  -1067.85950561  -0.0000000430  0.000043  0.000086  0.000135  0.000002
 12  -1067.85950572  -0.0000001157  0.000010  0.000049  0.000021  0.000000
 13  -1067.85950571   0.0000000137  0.000004  0.000026  0.000009  0.000000
                  ***Gradient check signals convergence***
              ***Rediagonalizing the Fockian in SOSCF/NRSCF***

               *****************************************************
               *                     SUCCESS                       *
               *           SCF CONVERGED AFTER  14 CYCLES          *
               *****************************************************

Old exchange energy                            =    -43.996077394 Eh
New exchange energy                            =    -43.996121286 Eh
Exchange energy change after final integration =     -0.000043892 Eh
Total energy after final integration           =  -1067.859549610 Eh
Final COS-X integration done in                =   209.423 sec

----------------
TOTAL SCF ENERGY
----------------

Total Energy       :        -1067.85954961 Eh          -29057.93562 eV

Components:
Nuclear Repulsion  :         1758.56919793 Eh           47853.10068 eV
Electronic Energy  :        -2826.42874754 Eh          -76911.03630 eV
One Electron Energy:        -4945.48219952 Eh         -134573.41223 eV
Two Electron Energy:         2119.05345198 Eh           57662.37593 eV
Max COSX asymmetry :            0.00000170 Eh               0.00005 eV

Virial components:
Potential Energy   :        -2129.16983568 Eh          -57937.65672 eV
Kinetic Energy     :         1061.31028607 Eh           28879.72110 eV
Virial Ratio       :            2.00617092


DFT components:
N(Alpha)           :       78.999995768876 electrons
N(Beta)            :       78.999995768876 electrons
N(Total)           :      157.999991537751 electrons
E(XC)              :     -100.193425406906 Eh       
DFET-embed. en.    :        0.000000000000 Eh       

---------------
SCF CONVERGENCE
---------------

  Last Energy change         ...   -9.7123e-09  Tolerance :   1.0000e-08
  Last MAX-Density change    ...    6.6613e-15  Tolerance :   1.0000e-07
  Last RMS-Density change    ...    5.5129e-17  Tolerance :   5.0000e-09
  Last Orbital Gradient      ...    1.8673e-06  Tolerance :   1.0000e-05
  Last Orbital Rotation      ...    1.2918e-05  Tolerance :   1.0000e-05

             **** THE GBW FILE WAS UPDATED (calcyn_opt_iroot_2.gbw) ****
             **** DENSITY calcyn_opt_iroot_2.scfp WAS UPDATED ****
             **** ENERGY FILE WAS UPDATED (calcyn_opt_iroot_2.en.tmp) ****
             **** THE GBW FILE WAS UPDATED (calcyn_opt_iroot_2.gbw) ****
             **** DENSITY calcyn_opt_iroot_2.scfp WAS UPDATED ****
----------------
ORBITAL ENERGIES
----------------

  NO   OCC          E(Eh)            E(eV) 
   0   2.0000     -19.338928      -526.2390 
   1   2.0000     -19.333600      -526.0940 
   2   2.0000     -19.302165      -525.2386 
   3   2.0000     -19.281202      -524.6682 
   4   2.0000     -19.265400      -524.2382 
   5   2.0000     -10.467420      -284.8330 
   6   2.0000     -10.448569      -284.3200 
   7   2.0000     -10.419488      -283.5287 
   8   2.0000     -10.405474      -283.1473 
   9   2.0000     -10.379320      -282.4357 
  10   2.0000     -10.348959      -281.6095 
  11   2.0000     -10.332358      -281.1578 
  12   2.0000     -10.329304      -281.0747 
  13   2.0000     -10.323618      -280.9199 
  14   2.0000     -10.323504      -280.9168 
  15   2.0000     -10.322949      -280.9017 
  16   2.0000     -10.317010      -280.7401 
  17   2.0000     -10.315709      -280.7047 
  18   2.0000     -10.297737      -280.2157 
  19   2.0000     -10.296544      -280.1832 
  20   2.0000     -10.296041      -280.1695 
  21   2.0000     -10.295869      -280.1649 
  22   2.0000     -10.294682      -280.1325 
  23   2.0000      -1.281624       -34.8748 
  24   2.0000      -1.274284       -34.6750 
  25   2.0000      -1.219251       -33.1775 
  26   2.0000      -1.190174       -32.3863 
  27   2.0000      -1.184615       -32.2350 
  28   2.0000      -1.011926       -27.5359 
  29   2.0000      -0.990132       -26.9429 
  30   2.0000      -0.969463       -26.3804 
  31   2.0000      -0.953105       -25.9353 
  32   2.0000      -0.895823       -24.3766 
  33   2.0000      -0.889594       -24.2071 
  34   2.0000      -0.868253       -23.6264 
  35   2.0000      -0.865173       -23.5426 
  36   2.0000      -0.836502       -22.7624 
  37   2.0000      -0.774979       -21.0882 
  38   2.0000      -0.761076       -20.7099 
  39   2.0000      -0.751135       -20.4394 
  40   2.0000      -0.738208       -20.0877 
  41   2.0000      -0.714073       -19.4309 
  42   2.0000      -0.707158       -19.2428 
  43   2.0000      -0.694428       -18.8964 
  44   2.0000      -0.672502       -18.2997 
  45   2.0000      -0.637811       -17.3557 
  46   2.0000      -0.629684       -17.1346 
  47   2.0000      -0.626186       -17.0394 
  48   2.0000      -0.618974       -16.8431 
  49   2.0000      -0.606578       -16.5058 
  50   2.0000      -0.604854       -16.4589 
  51   2.0000      -0.589613       -16.0442 
  52   2.0000      -0.576173       -15.6785 
  53   2.0000      -0.565782       -15.3957 
  54   2.0000      -0.564217       -15.3531 
  55   2.0000      -0.550333       -14.9753 
  56   2.0000      -0.548319       -14.9205 
  57   2.0000      -0.540676       -14.7125 
  58   2.0000      -0.533056       -14.5052 
  59   2.0000      -0.523491       -14.2449 
  60   2.0000      -0.518963       -14.1217 
  61   2.0000      -0.512492       -13.9456 
  62   2.0000      -0.512316       -13.9408 
  63   2.0000      -0.501532       -13.6474 
  64   2.0000      -0.489957       -13.3324 
  65   2.0000      -0.487656       -13.2698 
  66   2.0000      -0.475922       -12.9505 
  67   2.0000      -0.463848       -12.6220 
  68   2.0000      -0.460882       -12.5412 
  69   2.0000      -0.448557       -12.2059 
  70   2.0000      -0.437338       -11.9006 
  71   2.0000      -0.413913       -11.2631 
  72   2.0000      -0.410409       -11.1678 
  73   2.0000      -0.394351       -10.7308 
  74   2.0000      -0.391286       -10.6474 
  75   2.0000      -0.354960        -9.6590 
  76   2.0000      -0.340567        -9.2673 
  77   2.0000      -0.335345        -9.1252 
  78   2.0000      -0.302519        -8.2320 
  79   0.0000      -0.053362        -1.4521 
  80   0.0000       0.045636         1.2418 
  81   0.0000       0.053899         1.4667 
  82   0.0000       0.065201         1.7742 
  83   0.0000       0.069800         1.8994 
  84   0.0000       0.080172         2.1816 
  85   0.0000       0.134920         3.6714 
  86   0.0000       0.153520         4.1775 
  87   0.0000       0.161164         4.3855 
  88   0.0000       0.173235         4.7140 
  89   0.0000       0.180323         4.9068 
  90   0.0000       0.195185         5.3112 
  91   0.0000       0.197083         5.3629 
  92   0.0000       0.199857         5.4384 
  93   0.0000       0.211620         5.7585 
  94   0.0000       0.217834         5.9276 
  95   0.0000       0.226527         6.1641 
  96   0.0000       0.241302         6.5662 
  97   0.0000       0.249653         6.7934 
  98   0.0000       0.250164         6.8073 
  99   0.0000       0.257681         7.0119 
 100   0.0000       0.266974         7.2647 
 101   0.0000       0.268441         7.3047 
 102   0.0000       0.277383         7.5480 
 103   0.0000       0.311158         8.4670 
 104   0.0000       0.315857         8.5949 
 105   0.0000       0.321276         8.7424 
 106   0.0000       0.346791         9.4367 
 107   0.0000       0.360234         9.8025 
 108   0.0000       0.361900         9.8478 
 109   0.0000       0.370529        10.0826 
 110   0.0000       0.374222        10.1831 
 111   0.0000       0.393013        10.6944 
 112   0.0000       0.401506        10.9255 
 113   0.0000       0.414374        11.2757 
 114   0.0000       0.421194        11.4613 
 115   0.0000       0.430634        11.7182 
 116   0.0000       0.435852        11.8601 
 117   0.0000       0.456977        12.4350 
 118   0.0000       0.463124        12.6023 
 119   0.0000       0.488648        13.2968 
 120   0.0000       0.493841        13.4381 
 121   0.0000       0.502665        13.6782 
 122   0.0000       0.511295        13.9130 
 123   0.0000       0.514743        14.0069 
 124   0.0000       0.527658        14.3583 
 125   0.0000       0.529124        14.3982 
 126   0.0000       0.544544        14.8178 
 127   0.0000       0.548795        14.9335 
 128   0.0000       0.556939        15.1551 
 129   0.0000       0.561744        15.2858 
 130   0.0000       0.570001        15.5105 
 131   0.0000       0.576958        15.6998 
 132   0.0000       0.579632        15.7726 
 133   0.0000       0.580644        15.8001 
 134   0.0000       0.583242        15.8708 
 135   0.0000       0.586702        15.9650 
 136   0.0000       0.593917        16.1613 
 137   0.0000       0.595631        16.2079 
 138   0.0000       0.604341        16.4450 
 139   0.0000       0.606524        16.5044 
 140   0.0000       0.610312        16.6074 
 141   0.0000       0.616688        16.7809 
 142   0.0000       0.616973        16.7887 
 143   0.0000       0.618573        16.8322 
 144   0.0000       0.623709        16.9720 
 145   0.0000       0.625757        17.0277 
 146   0.0000       0.630553        17.1582 
 147   0.0000       0.634637        17.2693 
 148   0.0000       0.651107        17.7175 
 149   0.0000       0.654913        17.8211 
 150   0.0000       0.663022        18.0417 
 151   0.0000       0.684135        18.6163 
 152   0.0000       0.688838        18.7442 
 153   0.0000       0.698814        19.0157 
 154   0.0000       0.705873        19.2078 
 155   0.0000       0.712247        19.3812 
 156   0.0000       0.720475        19.6051 
 157   0.0000       0.725502        19.7419 
 158   0.0000       0.729211        19.8429 
 159   0.0000       0.732129        19.9222 
 160   0.0000       0.733082        19.9482 
 161   0.0000       0.742841        20.2137 
 162   0.0000       0.766283        20.8516 
 163   0.0000       0.771662        20.9980 
 164   0.0000       0.773557        21.0495 
 165   0.0000       0.782473        21.2922 
 166   0.0000       0.784894        21.3581 
 167   0.0000       0.790930        21.5223 
 168   0.0000       0.796282        21.6679 
 169   0.0000       0.797845        21.7105 
 170   0.0000       0.807485        21.9728 
 171   0.0000       0.831901        22.6372 
 172   0.0000       0.850210        23.1354 
 173   0.0000       0.867204        23.5978 
 174   0.0000       0.896040        24.3825 
 175   0.0000       0.900099        24.4929 
 176   0.0000       0.921794        25.0833 
 177   0.0000       0.932169        25.3656 
 178   0.0000       0.952401        25.9162 
 179   0.0000       0.955195        25.9922 
 180   0.0000       0.960313        26.1314 
 181   0.0000       0.965124        26.2624 
 182   0.0000       0.970107        26.3980 
 183   0.0000       0.975550        26.5461 
 184   0.0000       0.978774        26.6338 
 185   0.0000       0.987611        26.8743 
 186   0.0000       1.002180        27.2707 
 187   0.0000       1.010730        27.5034 
 188   0.0000       1.014427        27.6040 
 189   0.0000       1.021571        27.7984 
 190   0.0000       1.031260        28.0620 
 191   0.0000       1.035065        28.1655 
 192   0.0000       1.042384        28.3647 
 193   0.0000       1.047066        28.4921 
 194   0.0000       1.047545        28.5051 
 195   0.0000       1.059677        28.8353 
 196   0.0000       1.076471        29.2923 
 197   0.0000       1.076808        29.3014 
 198   0.0000       1.078270        29.3412 
 199   0.0000       1.098597        29.8943 
 200   0.0000       1.105530        30.0830 
 201   0.0000       1.115159        30.3450 
 202   0.0000       1.117547        30.4100 
 203   0.0000       1.126962        30.6662 
 204   0.0000       1.129544        30.7364 
 205   0.0000       1.133757        30.8511 
 206   0.0000       1.140706        31.0402 
 207   0.0000       1.149032        31.2667 
 208   0.0000       1.152791        31.3690 
 209   0.0000       1.157666        31.5017 
 210   0.0000       1.159591        31.5541 
 211   0.0000       1.172046        31.8930 
 212   0.0000       1.175083        31.9756 
 213   0.0000       1.187938        32.3254 
 214   0.0000       1.198838        32.6220 
 215   0.0000       1.212602        32.9966 
 216   0.0000       1.234299        33.5870 
 217   0.0000       1.237885        33.6846 
 218   0.0000       1.251411        34.0526 
 219   0.0000       1.255202        34.1558 
 220   0.0000       1.305884        35.5349 
 221   0.0000       1.307198        35.5707 
 222   0.0000       1.326013        36.0826 
 223   0.0000       1.328105        36.1396 
 224   0.0000       1.354427        36.8558 
 225   0.0000       1.360786        37.0289 
 226   0.0000       1.384541        37.6753 
 227   0.0000       1.388100        37.7721 
 228   0.0000       1.402066        38.1522 
 229   0.0000       1.405634        38.2492 
 230   0.0000       1.410738        38.3881 
 231   0.0000       1.419137        38.6167 
 232   0.0000       1.428813        38.8800 
 233   0.0000       1.442739        39.2589 
 234   0.0000       1.465570        39.8802 
 235   0.0000       1.470857        40.0241 
 236   0.0000       1.478220        40.2244 
 237   0.0000       1.485743        40.4291 
 238   0.0000       1.490949        40.5708 
 239   0.0000       1.496806        40.7301 
 240   0.0000       1.528673        41.5973 
 241   0.0000       1.541547        41.9476 
 242   0.0000       1.558945        42.4210 
 243   0.0000       1.561739        42.4971 
 244   0.0000       1.568952        42.6934 
 245   0.0000       1.581836        43.0439 
 246   0.0000       1.584875        43.1266 
 247   0.0000       1.588382        43.2221 
 248   0.0000       1.597329        43.4655 
 249   0.0000       1.619068        44.0571 
 250   0.0000       1.620587        44.0984 
 251   0.0000       1.630591        44.3706 
 252   0.0000       1.646623        44.8069 
 253   0.0000       1.656338        45.0712 
 254   0.0000       1.666607        45.3507 
 255   0.0000       1.671972        45.4967 
 256   0.0000       1.688816        45.9550 
 257   0.0000       1.700597        46.2756 
 258   0.0000       1.706272        46.4300 
 259   0.0000       1.711139        46.5625 
 260   0.0000       1.714349        46.6498 
 261   0.0000       1.721443        46.8428 
 262   0.0000       1.735453        47.2241 
 263   0.0000       1.742319        47.4109 
 264   0.0000       1.743724        47.4491 
 265   0.0000       1.756034        47.7841 
 266   0.0000       1.763046        47.9749 
 267   0.0000       1.768256        48.1167 
 268   0.0000       1.769373        48.1471 
 269   0.0000       1.801772        49.0287 
 270   0.0000       1.806259        49.1508 
 271   0.0000       1.815935        49.4141 
 272   0.0000       1.828982        49.7691 
 273   0.0000       1.831487        49.8373 
 274   0.0000       1.841723        50.1158 
 275   0.0000       1.844352        50.1874 
 276   0.0000       1.851100        50.3710 
 277   0.0000       1.861587        50.6563 
 278   0.0000       1.866420        50.7879 
 279   0.0000       1.868656        50.8487 
 280   0.0000       1.891281        51.4644 
 281   0.0000       1.898585        51.6631 
 282   0.0000       1.901183        51.7338 
 283   0.0000       1.920762        52.2666 
 284   0.0000       1.934247        52.6335 
 285   0.0000       1.935641        52.6715 
 286   0.0000       1.945309        52.9345 
 287   0.0000       1.955968        53.2246 
 288   0.0000       1.958114        53.2830 
 289   0.0000       1.965724        53.4901 
 290   0.0000       1.970628        53.6235 
 291   0.0000       1.981777        53.9269 
 292   0.0000       1.992298        54.2132 
 293   0.0000       2.008199        54.6459 
 294   0.0000       2.015928        54.8562 
 295   0.0000       2.037644        55.4471 
 296   0.0000       2.042990        55.5926 
 297   0.0000       2.063581        56.1529 
 298   0.0000       2.070064        56.3293 
 299   0.0000       2.073476        56.4222 
 300   0.0000       2.081645        56.6444 
 301   0.0000       2.084121        56.7118 
 302   0.0000       2.092968        56.9525 
 303   0.0000       2.098863        57.1130 
 304   0.0000       2.105475        57.2929 
 305   0.0000       2.108306        57.3699 
 306   0.0000       2.127513        57.8926 
 307   0.0000       2.135215        58.1022 
 308   0.0000       2.176071        59.2139 
 309   0.0000       2.201787        59.9137 
 310   0.0000       2.238000        60.8991 
 311   0.0000       2.248898        61.1956 
 312   0.0000       2.260663        61.5158 
 313   0.0000       2.265921        61.6588 
 314   0.0000       2.275525        61.9202 
 315   0.0000       2.312591        62.9288 
 316   0.0000       2.315095        62.9969 
 317   0.0000       2.341248        63.7086 
 318   0.0000       2.357662        64.1552 
 319   0.0000       2.378788        64.7301 
 320   0.0000       2.414554        65.7033 
 321   0.0000       2.425692        66.0064 
 322   0.0000       2.477803        67.4245 
 323   0.0000       2.480609        67.5008 
 324   0.0000       2.486605        67.6640 
 325   0.0000       2.499582        68.0171 
 326   0.0000       2.514797        68.4311 
 327   0.0000       2.543019        69.1991 
 328   0.0000       2.547726        69.3271 
 329   0.0000       2.553308        69.4790 
 330   0.0000       2.569829        69.9286 
 331   0.0000       2.606532        70.9273 
 332   0.0000       2.670132        72.6580 
 333   0.0000       2.692659        73.2710 
 334   0.0000       2.703373        73.5625 
 335   0.0000       2.708439        73.7004 
 336   0.0000       2.749518        74.8182 
 337   0.0000       2.785679        75.8022 
 338   0.0000       2.801944        76.2448 
 339   0.0000       2.811232        76.4975 
 340   0.0000       2.831163        77.0399 
 341   0.0000       2.852163        77.6113 
 342   0.0000       2.882600        78.4395 
 343   0.0000       2.883282        78.4581 
 344   0.0000       2.886821        78.5544 
 345   0.0000       2.917371        79.3857 
 346   0.0000       2.943153        80.0873 
 347   0.0000       2.945408        80.1486 
 348   0.0000       2.993146        81.4476 
 349   0.0000       3.008274        81.8593 
 350   0.0000       3.017321        82.1055 
 351   0.0000       3.022169        82.2374 
 352   0.0000       3.042576        82.7927 
 353   0.0000       3.063690        83.3672 
 354   0.0000       3.075040        83.6761 
 355   0.0000       3.150838        85.7387 
 356   0.0000       3.177169        86.4552 
 357   0.0000       3.199249        87.0560 
 358   0.0000       3.211805        87.3977 
 359   0.0000       3.260237        88.7156 
 360   0.0000       3.320318        90.3504 
 361   0.0000       3.355220        91.3002 
 362   0.0000       3.455074        94.0174 
 363   0.0000       3.487828        94.9086 
 364   0.0000       3.511498        95.5527 
 365   0.0000       3.546932        96.5169 
 366   0.0000       3.597866        97.9029 
 367   0.0000       3.615780        98.3904 
 368   0.0000       3.659464        99.5791 
 369   0.0000       3.697093       100.6030 
 370   0.0000       3.754730       102.1714 
 371   0.0000       3.944585       107.3376 

                    ********************************
                    * MULLIKEN POPULATION ANALYSIS *
                    ********************************

-----------------------
MULLIKEN ATOMIC CHARGES
-----------------------
   0 C :   -0.151625
   1 C :    0.228248
   2 C :    0.042806
   3 C :    0.291702
   4 C :    0.016684
   5 O :   -0.238792
   6 C :    0.140748
   7 C :   -0.037402
   8 O :   -0.210906
   9 O :   -0.262129
  10 C :   -0.024674
  11 O :   -0.169102
  12 C :    0.248151
  13 C :   -0.008270
  14 C :    0.018463
  15 C :   -0.014748
  16 O :   -0.172424
  17 C :    0.015118
  18 C :   -0.025618
  19 C :   -0.026099
  20 C :    0.018112
  21 C :    0.016887
  22 C :    0.008326
  23 H :    0.018849
  24 H :    0.181744
  25 H :    0.025558
  26 H :    0.016561
  27 H :    0.018148
  28 H :    0.009066
  29 H :    0.012564
  30 H :    0.004667
  31 H :    0.005597
  32 H :    0.003789
Sum of atomic charges:    0.0000000

--------------------------------
MULLIKEN REDUCED ORBITAL CHARGES
--------------------------------
  0 C s       :     3.177646  s :     3.177646
      pz      :     1.112490  p :     2.899493
      px      :     0.889723
      py      :     0.897280
      dz2     :     0.005275  d :     0.074487
      dxz     :     0.016298
      dyz     :     0.007791
      dx2y2   :     0.023804
      dxy     :     0.021319
  1 C s       :     3.211865  s :     3.211865
      pz      :     0.895279  p :     2.410234
      px      :     0.794648
      py      :     0.720307
      dz2     :     0.008824  d :     0.149653
      dxz     :     0.017527
      dyz     :     0.035725
      dx2y2   :     0.046778
      dxy     :     0.040799
  2 C s       :     3.119907  s :     3.119907
      pz      :     1.016956  p :     2.751096
      px      :     0.805476
      py      :     0.928664
      dz2     :     0.005600  d :     0.086191
      dxz     :     0.015312
      dyz     :     0.013569
      dx2y2   :     0.030967
      dxy     :     0.020743
  3 C s       :     3.036252  s :     3.036252
      pz      :     0.785516  p :     2.432267
      px      :     0.751369
      py      :     0.895382
      dz2     :     0.011027  d :     0.239779
      dxz     :     0.052980
      dyz     :     0.021586
      dx2y2   :     0.072195
      dxy     :     0.081991
  4 C s       :     3.223878  s :     3.223878
      pz      :     0.919134  p :     2.600478
      px      :     0.805815
      py      :     0.875529
      dz2     :     0.010003  d :     0.158960
      dxz     :     0.015805
      dyz     :     0.039095
      dx2y2   :     0.053847
      dxy     :     0.040209
  5 O s       :     3.765620  s :     3.765620
      pz      :     1.704704  p :     4.454468
      px      :     1.541475
      py      :     1.208290
      dz2     :     0.002585  d :     0.018704
      dxz     :     0.002486
      dyz     :     0.002468
      dx2y2   :     0.004124
      dxy     :     0.007042
  6 C s       :     3.110959  s :     3.110959
      pz      :     0.988717  p :     2.608639
      px      :     0.746043
      py      :     0.873879
      dz2     :     0.008643  d :     0.139654
      dxz     :     0.026736
      dyz     :     0.017724
      dx2y2   :     0.037153
      dxy     :     0.049398
  7 C s       :     3.166804  s :     3.166804
      pz      :     0.948457  p :     2.803464
      px      :     0.938953
      py      :     0.916054
      dz2     :     0.003374  d :     0.067135
      dxz     :     0.014032
      dyz     :     0.005872
      dx2y2   :     0.022477
      dxy     :     0.021379
  8 O s       :     3.748194  s :     3.748194
      pz      :     1.694581  p :     4.443576
      px      :     1.183317
      py      :     1.565678
      dz2     :     0.002580  d :     0.019137
      dxz     :     0.002453
      dyz     :     0.002866
      dx2y2   :     0.002720
      dxy     :     0.008518
  9 O s       :     3.752096  s :     3.752096
      pz      :     1.456382  p :     4.491956
      px      :     1.362901
      py      :     1.672674
      dz2     :     0.002109  d :     0.018077
      dxz     :     0.004274
      dyz     :     0.001400
      dx2y2   :     0.004688
      dxy     :     0.005607
 10 C s       :     3.113242  s :     3.113242
      pz      :     1.099763  p :     2.833966
      px      :     0.890269
      py      :     0.843933
      dz2     :     0.005289  d :     0.077467
      dxz     :     0.014998
      dyz     :     0.011497
      dx2y2   :     0.020258
      dxy     :     0.025425
 11 O s       :     3.689557  s :     3.689557
      pz      :     1.729201  p :     4.464507
      px      :     1.530878
      py      :     1.204428
      dz2     :     0.002026  d :     0.015038
      dxz     :     0.002327
      dyz     :     0.001339
      dx2y2   :     0.002072
      dxy     :     0.007273
 12 C s       :     3.053086  s :     3.053086
      pz      :     0.801104  p :     2.464287
      px      :     0.844142
      py      :     0.819041
      dz2     :     0.011685  d :     0.234476
      dxz     :     0.020855
      dyz     :     0.049699
      dx2y2   :     0.050360
      dxy     :     0.101877
 13 C s       :     3.091856  s :     3.091856
[...]
   Time for K (COSX):            42.280
   Time for XC-Integration:       6.735
   Time for Sigma-Completion:     0.025
   Size of expansion space: 40
   Lowest Energy          :     0.111751067153
   Maximum Energy change  :     0.023254079949 (vector 9)
   Maximum residual norm  :     0.001545824672

                       ****Iteration    2****
   Time for densities:            0.031
   Time for RI-J (Direct):        8.132
   Time for K (COSX):            42.300
   Time for XC-Integration:       6.654
   Time for Sigma-Completion:     0.025
   Size of expansion space: 50
   Lowest Energy          :     0.110907706554
   Maximum Energy change  :     0.004146676946 (vector 9)
   Maximum residual norm  :     0.000451374880

                       ****Iteration    3****
   Time for densities:            0.031
   Time for RI-J (Direct):        8.094
   Time for K (COSX):            41.971
   Time for XC-Integration:       6.781
   Time for Sigma-Completion:     0.025
   Size of expansion space: 60
   Lowest Energy          :     0.110851074186
   Maximum Energy change  :     0.001178271790 (vector 9)
   Maximum residual norm  :     0.000148698439

                       ****Iteration    4****
   Time for densities:            0.030
   Time for RI-J (Direct):        8.072
   Time for K (COSX):            42.181
   Time for XC-Integration:       6.862
   Time for Sigma-Completion:     0.025
   Size of expansion space: 70
   Lowest Energy          :     0.110845263031
   Maximum Energy change  :     0.000277382178 (vector 9)
   Maximum residual norm  :     0.000031865779

                       ****Iteration    5****
   Time for densities:            0.030
   Time for RI-J (Direct):        8.069
   Time for K (COSX):            42.038
   Time for XC-Integration:       6.574
   Time for Sigma-Completion:     0.024
   Size of expansion space: 80
   Lowest Energy          :     0.110844993485
   Maximum Energy change  :     0.000069706822 (vector 9)
   Maximum residual norm  :     0.000006712849

                       ****Iteration    6****
   Time for densities:            0.030
   Time for RI-J (Direct):        7.789
   Time for K (COSX):            42.370
   Time for XC-Integration:       6.868
   Time for Sigma-Completion:     0.024
   Size of expansion space: 90
   Lowest Energy          :     0.110844982521
   Maximum Energy change  :     0.000011552542 (vector 9)
   Maximum residual norm  :     0.000000988751

                       ****Iteration    7****
   Time for densities:            0.029
   Time for RI-J (Direct):        7.822
   Time for K (COSX):            42.175
   Time for XC-Integration:       7.130
   Time for Sigma-Completion:     0.026
   Size of expansion space: 100
   Lowest Energy          :     0.110844981930
   Maximum Energy change  :     0.000001557443 (vector 9)
   Maximum residual norm  :     0.000000117941

      *** CONVERGENCE OF RESIDUAL NORM REACHED ***

Storing the converged CI vectors               ... calcyn_opt_iroot_2.cis1

                 *** DAVIDSON DONE ***

Total time for solving the CIS problem:   519.771sec

------------------------------------
TD-DFT/TDA EXCITED STATES (SINGLETS)
------------------------------------

the weight of the individual excitations are printed if larger than 1.0e-02

STATE  1:  E=   0.110845 au      3.016 eV    24327.7 cm**-1 <S**2> =   0.000000
    72a ->  79a  :     0.012814 (c=  0.11320090)
    75a ->  79a  :     0.011103 (c= -0.10536932)
    78a ->  79a  :     0.923029 (c= -0.96074414)

STATE  2:  E=   0.125058 au      3.403 eV    27447.0 cm**-1 <S**2> =   0.000000
    74a ->  79a  :     0.018714 (c=  0.13679773)
    77a ->  79a  :     0.916003 (c=  0.95708029)

STATE  3:  E=   0.153205 au      4.169 eV    33624.5 cm**-1 <S**2> =   0.000000
    72a ->  79a  :     0.028807 (c=  0.16972691)
    74a ->  79a  :     0.013609 (c= -0.11665795)
    75a ->  79a  :     0.798597 (c= -0.89364266)
    76a ->  79a  :     0.068250 (c=  0.26124693)
    78a ->  79a  :     0.018580 (c=  0.13630711)
    78a ->  81a  :     0.011372 (c=  0.10663870)

STATE  4:  E=   0.156571 au      4.261 eV    34363.4 cm**-1 <S**2> =   0.000000
    68a ->  79a  :     0.019864 (c=  0.14094093)
    70a ->  79a  :     0.018531 (c= -0.13612998)
    73a ->  79a  :     0.758186 (c= -0.87073879)
    73a ->  82a  :     0.026701 (c=  0.16340501)
    73a ->  84a  :     0.029468 (c=  0.17166238)
    74a ->  79a  :     0.096392 (c= -0.31047013)

STATE  5:  E=   0.160419 au      4.365 eV    35207.9 cm**-1 <S**2> =   0.000000
    75a ->  79a  :     0.066933 (c= -0.25871423)
    76a ->  79a  :     0.818417 (c= -0.90466375)
    76a ->  80a  :     0.026161 (c=  0.16174273)
    76a ->  81a  :     0.018899 (c= -0.13747205)
    78a ->  82a  :     0.016314 (c= -0.12772455)
    78a ->  83a  :     0.010229 (c= -0.10113883)

STATE  6:  E=   0.171791 au      4.675 eV    37703.7 cm**-1 <S**2> =   0.000000
    65a ->  79a  :     0.010494 (c=  0.10243879)
    69a ->  79a  :     0.012820 (c= -0.11322542)
    70a ->  79a  :     0.013547 (c=  0.11638946)
    71a ->  79a  :     0.846621 (c= -0.92012014)
    71a ->  80a  :     0.037106 (c= -0.19262917)
    71a ->  84a  :     0.017446 (c= -0.13208339)
    72a ->  79a  :     0.012749 (c= -0.11291244)

STATE  7:  E=   0.192692 au      5.243 eV    42291.0 cm**-1 <S**2> =   0.000000
    66a ->  79a  :     0.011881 (c= -0.10899865)
    67a ->  79a  :     0.036352 (c=  0.19066077)
    72a ->  79a  :     0.406746 (c=  0.63776632)
    74a ->  79a  :     0.053646 (c= -0.23161714)
    75a ->  83a  :     0.030368 (c= -0.17426430)
    77a ->  79a  :     0.012292 (c=  0.11086744)
    77a ->  80a  :     0.044082 (c=  0.20995797)
    77a ->  81a  :     0.129289 (c=  0.35956786)
    78a ->  80a  :     0.134386 (c= -0.36658637)
    78a ->  81a  :     0.045056 (c= -0.21226386)

STATE  8:  E=   0.197038 au      5.362 eV    43244.9 cm**-1 <S**2> =   0.000000
    66a ->  79a  :     0.015044 (c= -0.12265261)
    73a ->  79a  :     0.076108 (c=  0.27587691)
    74a ->  79a  :     0.602179 (c= -0.77600191)
    75a ->  79a  :     0.041989 (c=  0.20491207)
    75a ->  83a  :     0.015203 (c=  0.12329971)
    77a ->  79a  :     0.011152 (c=  0.10560209)
    77a ->  80a  :     0.043960 (c= -0.20966565)
    77a ->  81a  :     0.042008 (c= -0.20495846)
    78a ->  80a  :     0.024906 (c=  0.15781653)
    78a ->  81a  :     0.033088 (c=  0.18190066)
    78a ->  84a  :     0.020848 (c= -0.14438907)

STATE  9:  E=   0.206548 au      5.620 eV    45331.9 cm**-1 <S**2> =   0.000000
    75a ->  82a  :     0.026450 (c= -0.16263412)
    76a ->  79a  :     0.080570 (c=  0.28384810)
    76a ->  80a  :     0.151111 (c=  0.38872966)
    76a ->  81a  :     0.112729 (c= -0.33575105)
    76a ->  82a  :     0.033822 (c= -0.18390692)
    76a ->  84a  :     0.022739 (c= -0.15079523)
    76a ->  87a  :     0.011921 (c= -0.10918483)
    77a ->  82a  :     0.070225 (c= -0.26500013)
    77a ->  83a  :     0.040939 (c= -0.20233448)
    77a ->  84a  :     0.019639 (c=  0.14013758)
    78a ->  80a  :     0.013538 (c= -0.11635283)
    78a ->  82a  :     0.210490 (c= -0.45879212)
    78a ->  83a  :     0.109019 (c= -0.33018099)
    78a ->  84a  :     0.028601 (c=  0.16911873)

STATE 10:  E=   0.210733 au      5.734 eV    46250.5 cm**-1 <S**2> =   0.000000
    67a ->  79a  :     0.025369 (c=  0.15927705)
    72a ->  79a  :     0.312806 (c=  0.55929051)
    73a ->  79a  :     0.010737 (c= -0.10362084)
    74a ->  79a  :     0.087688 (c=  0.29612219)
    75a ->  79a  :     0.037931 (c=  0.19475818)
    75a ->  82a  :     0.015818 (c= -0.12577006)
    75a ->  83a  :     0.062384 (c=  0.24976780)
    75a ->  84a  :     0.021999 (c=  0.14832192)
    77a ->  80a  :     0.031357 (c= -0.17708016)
    77a ->  81a  :     0.052641 (c= -0.22943649)
    77a ->  82a  :     0.028728 (c=  0.16949478)
    77a ->  83a  :     0.040146 (c= -0.20036485)
    78a ->  80a  :     0.042010 (c=  0.20496233)
    78a ->  81a  :     0.125460 (c=  0.35420268)
    78a ->  84a  :     0.017884 (c=  0.13373137)


-----------------------------
TD-DFT/TDA-EXCITATION SPECTRA
-----------------------------

Center of mass = ( -6.0897,  3.7511,  0.1761)
Calculating the Dipole integrals                  ... done
Transforming integrals                            ... done
Calculating the Linear Momentum integrals         ... done
Transforming integrals                            ... done
Calculating angular momentum integrals            ... done
Transforming integrals                            ... done

-----------------------------------------------------------------------------
         ABSORPTION SPECTRUM VIA TRANSITION ELECTRIC DIPOLE MOMENTS
-----------------------------------------------------------------------------
State   Energy    Wavelength  fosc         T2        TX        TY        TZ  
        (cm-1)      (nm)                 (au**2)    (au)      (au)      (au) 
-----------------------------------------------------------------------------
   1   24327.7    411.1   0.857769799  11.60769   2.46847  -2.33991  -0.19786
   2   27447.0    364.3   0.002853406   0.03423  -0.04997  -0.17812  -0.00045
   3   33624.5    297.4   0.321841156   3.15109  -1.53134   0.89676   0.04385
   4   34363.4    291.0   0.000214288   0.00205  -0.01672  -0.02751   0.03188
   5   35207.9    284.0   0.010947022   0.10236  -0.03163   0.31775   0.01985
   6   37703.7    265.2   0.000108514   0.00095   0.00520  -0.00138   0.03031
   7   42291.0    236.5   0.339181472   2.64034  -1.42469   0.77994   0.04776
   8   43244.9    231.2   0.051542807   0.39238   0.24571  -0.57485  -0.03947
   9   45331.9    220.6   0.005449883   0.03958  -0.07810  -0.18281  -0.00778
  10   46250.5    216.2   0.120297463   0.85628   0.22844   0.88826   0.12286

-----------------------------------------------------------------------------
         ABSORPTION SPECTRUM VIA TRANSITION VELOCITY DIPOLE MOMENTS
-----------------------------------------------------------------------------
State   Energy    Wavelength   fosc        P2         PX        PY        PZ  
        (cm-1)      (nm)                 (au**2)     (au)      (au)      (au) 
-----------------------------------------------------------------------------
   1   24327.7    411.1   0.258273542   0.04294  -0.20185  -0.04568  -0.01065
   2   27447.0    364.3   0.000987824   0.00019  -0.00508  -0.01262  -0.00047
   3   33624.5    297.4   0.121432257   0.02791   0.14988  -0.07366  -0.00404
   4   34363.4    291.0   0.000722002   0.00017  -0.00180  -0.00466   0.01203
   5   35207.9    284.0   0.005851438   0.00141   0.03091   0.02118   0.00189
   6   37703.7    265.2   0.001865922   0.00048  -0.00123  -0.00221   0.02178
   7   42291.0    236.5   0.125971097   0.03641   0.17047  -0.08561  -0.00455
   8   43244.9    231.2   0.015165199   0.00448  -0.06569  -0.01254  -0.00319
   9   45331.9    220.6   0.000648111   0.00020  -0.00989  -0.01012  -0.00066
  10   46250.5    216.2   0.020418011   0.00645   0.07791  -0.01961  -0.00041

-------------------------------------------------------------------
                             CD SPECTRUM
-------------------------------------------------------------------
State  Energy     Wavelength     R         MX        MY        MZ   
       (cm-1)       (nm)     (1e40*cgs)   (au)      (au)      (au)  
-------------------------------------------------------------------
   1   24327.7    411.1      5.19183  -0.00842  -0.01366   0.00077
   2   27447.0    364.3     -2.79148   0.01483   0.02984  -0.29861
   3   33624.5    297.4     -5.48395   0.01241   0.01185  -0.07436
   4   34363.4    291.0     -2.29363   0.00662   0.19838   0.02206
   5   35207.9    284.0      2.69455  -0.00246   0.01778  -0.00055
   6   37703.7    265.2      0.75722   0.18016   0.14985   0.02892
   7   42291.0    236.5     -7.29370   0.01401   0.00598  -0.00370
   8   43244.9    231.2      2.86846  -0.00497  -0.02373   0.16055
   9   45331.9    220.6      0.36751   0.00079  -0.00765   0.07160
  10   46250.5    216.2      4.61412   0.00491  -0.01992   0.21452

-------------------------------------------------------------------
         CD SPECTRUM VIA TRANSITION VELOCITY DIPOLE MOMENTS        
-------------------------------------------------------------------
State  Energy     Wavelength     R         MX        MY        MZ   
       (cm-1)       (nm)     (1e40*cgs)   (au)      (au)      (au)  
-------------------------------------------------------------------
   1   24327.7    411.1      9.84955  -0.00842  -0.01366   0.00077
   2   27447.0    364.3     -1.17468   0.01483   0.02984  -0.29861
   3   33624.5    297.4      3.96042   0.01241   0.01185  -0.07436
   4   34363.4    291.0     -2.01923   0.00662   0.19838   0.02206
   5   35207.9    284.0      0.87978  -0.00246   0.01778  -0.00055
   6   37703.7    265.2      0.20956   0.18016   0.14985   0.02892
   7   42291.0    236.5      4.63168   0.01401   0.00598  -0.00370
   8   43244.9    231.2      0.26684  -0.00497  -0.02373   0.16055
   9   45331.9    220.6      0.05074   0.00079  -0.00765   0.07160
  10   46250.5    216.2      1.53443   0.00491  -0.01992   0.21452

Total run time:      523.267 sec

           *** ORCA-CIS/TD-DFT FINISHED WITHOUT ERROR ***

Maximum memory used throughout the entire CIS-calculation: 342.6 MB

-----------------------
CIS/TD-DFT TOTAL ENERGY
-----------------------

    E(SCF)  =  -1067.845181971 Eh
    DE(CIS) =      0.125057915 Eh (Root  2)
    ----------------------------- ---------
    E(tot)  =  -1067.720124055 Eh



-------------------------------------------------------------------------------
                          DFT DISPERSION CORRECTION                            
                                                                               
                              DFTD3 V3.1  Rev 1                                
                              USING zero damping                               
-------------------------------------------------------------------------------
The omegaB97X-D3 functional is recognized. Fit by Chai et al.
Active option DFTDOPT                   ...         3   

molecular C6(AA) [au] = 15283.089439 


            DFT-D V3
 parameters
 s6 scaling factor         :     1.0000 
 rs6 scaling factor        :     1.2810 
 s8 scaling factor         :     1.0000 
 rs8 scaling factor        :     1.0940 
 Damping factor alpha6     :    14.0000 
 Damping factor alpha8     :    16.0000 
 ad hoc parameters k1-k3   :    16.0000     1.3333    -4.0000 

 Edisp/kcal,au: -8.599589729401  -0.013704317094 
 E6   /kcal   :  -3.847697225 
 E8   /kcal   :  -4.751892505 
 % E8         :  55.257200100 

-------------------------   ----------------
Dispersion correction           -0.013704317
-------------------------   ----------------


-------------------------   --------------------
FINAL SINGLE POINT ENERGY     -1067.733828372535
-------------------------   --------------------

                                *** OPTIMIZATION RUN DONE ***

                            ***************************************
                            *     ORCA property calculations      *
                            ***************************************

                                    ---------------------
                                    Active property flags
                                    ---------------------
   (+) Dipole Moment


------------------------------------------------------------------------------
                       ORCA ELECTRIC PROPERTIES CALCULATION
------------------------------------------------------------------------------

Dipole Moment Calculation                       ... on
Quadrupole Moment Calculation                   ... off
Polarizability Calculation                      ... off
GBWName                                         ... calcyn_opt_iroot_2.gbw
Electron density                                ... calcyn_opt_iroot_2.scfp
The origin for moment calculation is the CENTER OF MASS  = (-6.089704,  3.751102  0.176133)

-------------
DIPOLE MOMENT
-------------
                                X             Y             Z
Electronic contribution:      3.98375      -5.47366      -0.81923
Nuclear contribution   :     -3.64410       5.24796       0.82890
                        -----------------------------------------
Total Dipole Moment    :      0.33964      -0.22570       0.00966
                        -----------------------------------------
Magnitude (a.u.)       :      0.40791
Magnitude (Debye)      :      1.03682



--------------------
Rotational spectrum 
--------------------
 
Rotational constants in cm-1:     0.024155     0.004444     0.003754 
Rotational constants in MHz :   724.151726   133.218124   112.552931 

 Dipole components along the rotational axes: 
x,y,z [a.u.] :    -0.406966    -0.012038     0.024972 
x,y,z [Debye]:    -1.034425    -0.030599     0.063473 

 

                        *** CIS RELAXED DENSITY ***

------------------------------------------------------------------------------
                       ORCA ELECTRIC PROPERTIES CALCULATION
------------------------------------------------------------------------------

Dipole Moment Calculation                       ... on
Quadrupole Moment Calculation                   ... off
Polarizability Calculation                      ... off
GBWName                                         ... calcyn_opt_iroot_2.gbw
Electron density                                ... calcyn_opt_iroot_2.cisp
The origin for moment calculation is the CENTER OF MASS  = (-6.089704,  3.751102  0.176133)

-------------
DIPOLE MOMENT
-------------
                                X             Y             Z
Electronic contribution:      5.71190      -6.24547      -0.82430
Nuclear contribution   :     -3.64410       5.24796       0.82890
                        -----------------------------------------
Total Dipole Moment    :      2.06780      -0.99750       0.00460
                        -----------------------------------------
Magnitude (a.u.)       :      2.29583
Magnitude (Debye)      :      5.83553



--------------------
Rotational spectrum 
--------------------
 
Rotational constants in cm-1:     0.024155     0.004444     0.003754 
Rotational constants in MHz :   724.151726   133.218124   112.552931 

 Dipole components along the rotational axes: 
x,y,z [a.u.] :    -2.282532     0.239663     0.058569 
x,y,z [Debye]:    -5.801736     0.609176     0.148870 

 

Timings for individual modules:

Sum of individual times         ...    28875.242 sec (= 481.254 min)
GTO integral calculation        ...       22.141 sec (=   0.369 min)   0.1 %
SCF iterations                  ...    10965.266 sec (= 182.754 min)  38.0 %
CIS module                      ...     6073.298 sec (= 101.222 min)  21.0 %
SCF Gradient evaluation         ...    11810.036 sec (= 196.834 min)  40.9 %
Geometry relaxation             ...        4.502 sec (=   0.075 min)   0.0 %
                             ****ORCA TERMINATED NORMALLY****
TOTAL RUN TIME: 0 days 8 hours 1 minutes 21 seconds 766 msec
Filesystem                                    Size  Used Avail Use% Mounted on
devtmpfs                                       24G     0   24G   0% /dev
tmpfs                                          24G     0   24G   0% /dev/shm
tmpfs                                          24G  2.5G   21G  11% /run
tmpfs                                          24G     0   24G   0% /sys/fs/cgroup
/dev/sda2                                      49G   11G   36G  23% /
/dev/sda1                                     4.9G  243M  4.4G   6% /boot
/dev/sda7                                      50M  4.0K   50M   1% /boot/efi
/dev/sda3                                      20G  634M   18G   4% /var
/dev/sda5                                     4.9G   40K  4.6G   1% /tmp
/dev/sda8                                     836G   91G  703G  12% /temporal
150.244.235.2@tcp:150.244.235.3@tcp:/LUSTREB  923T  238T  639T  28% /lustre
