panoramix.ccc.uam.es
/temporal/fmatar/slurm_tmp_6272780

                                 *****************
                                 * O   R   C   A *
                                 *****************

                                            #,                                       
                                            ###                                      
                                            ####                                     
                                            #####                                    
                                            ######                                   
                                           ########,                                 
                                     ,,################,,,,,                         
                               ,,#################################,,                 
                          ,,##########################################,,             
                       ,#########################################, ''#####,          
                    ,#############################################,,   '####,        
                  ,##################################################,,,,####,       
                ,###########''''           ''''###############################       
              ,#####''   ,,,,##########,,,,          '''####'''          '####       
            ,##' ,,,,###########################,,,                        '##       
           ' ,,###''''                  '''############,,,                           
         ,,##''                                '''############,,,,        ,,,,,,###''
      ,#''                                            '''#######################'''  
     '                                                          ''''####''''         
             ,#######,   #######,   ,#######,      ##                                
            ,#'     '#,  ##    ##  ,#'     '#,    #''#        ######   ,####,        
            ##       ##  ##   ,#'  ##            #'  '#       #        #'  '#        
            ##       ##  #######   ##           ,######,      #####,   #    #        
            '#,     ,#'  ##    ##  '#,     ,#' ,#      #,         ##   #,  ,#        
             '#######'   ##     ##  '#######'  #'      '#     #####' # '####'        



                  #######################################################
                  #                        -***-                        #
                  #          Department of theory and spectroscopy      #
                  #    Directorship and core code : Frank Neese         #
                  #        Max Planck Institute fuer Kohlenforschung    #
                  #                Kaiser Wilhelm Platz 1               #
                  #                 D-45470 Muelheim/Ruhr               #
                  #                      Germany                        #
                  #                                                     #
                  #                  All rights reserved                #
                  #                        -***-                        #
                  #######################################################


                         Program Version 5.0.3 -  RELEASE  -


 With contributions from (in alphabetic order):
   Daniel Aravena         : Magnetic Suceptibility
   Michael Atanasov       : Ab Initio Ligand Field Theory (pilot matlab implementation)
   Alexander A. Auer      : GIAO ZORA, VPT2 properties, NMR spectrum
   Ute Becker             : Parallelization
   Giovanni Bistoni       : ED, misc. LED, open-shell LED, HFLD
   Martin Brehm           : Molecular dynamics
   Dmytro Bykov           : SCF Hessian
   Vijay G. Chilkuri      : MRCI spin determinant printing, contributions to CSF-ICE
   Dipayan Datta          : RHF DLPNO-CCSD density
   Achintya Kumar Dutta   : EOM-CC, STEOM-CC
   Dmitry Ganyushin       : Spin-Orbit,Spin-Spin,Magnetic field MRCI
   Miquel Garcia          : C-PCM and meta-GGA Hessian, CC/C-PCM, Gaussian charge scheme
   Yang Guo               : DLPNO-NEVPT2, F12-NEVPT2, CIM, IAO-localization
   Andreas Hansen         : Spin unrestricted coupled pair/coupled cluster methods
   Benjamin Helmich-Paris : MC-RPA, TRAH-SCF, COSX integrals
   Lee Huntington         : MR-EOM, pCC
   Robert Izsak           : Overlap fitted RIJCOSX, COSX-SCS-MP3, EOM
   Marcus Kettner         : VPT2
   Christian Kollmar      : KDIIS, OOCD, Brueckner-CCSD(T), CCSD density, CASPT2, CASPT2-K
   Simone Kossmann        : Meta GGA functionals, TD-DFT gradient, OOMP2, MP2 Hessian
   Martin Krupicka        : Initial AUTO-CI
   Lucas Lang             : DCDCAS
   Marvin Lechner         : AUTO-CI (C++ implementation), FIC-MRCC
   Dagmar Lenk            : GEPOL surface, SMD
   Dimitrios Liakos       : Extrapolation schemes; Compound Job, initial MDCI parallelization
   Dimitrios Manganas     : Further ROCIS development; embedding schemes
   Dimitrios Pantazis     : SARC Basis sets
   Anastasios Papadopoulos: AUTO-CI, single reference methods and gradients
   Taras Petrenko         : DFT Hessian,TD-DFT gradient, ASA, ECA, R-Raman, ABS, FL, XAS/XES, NRVS
   Peter Pinski           : DLPNO-MP2, DLPNO-MP2 Gradient
   Christoph Reimann      : Effective Core Potentials
   Marius Retegan         : Local ZFS, SOC
   Christoph Riplinger    : Optimizer, TS searches, QM/MM, DLPNO-CCSD(T), (RO)-DLPNO pert. Triples
   Tobias Risthaus        : Range-separated hybrids, TD-DFT gradient, RPA, STAB
   Michael Roemelt        : Original ROCIS implementation
   Masaaki Saitow         : Open-shell DLPNO-CCSD energy and density
   Barbara Sandhoefer     : DKH picture change effects
   Avijit Sen             : IP-ROCIS
   Kantharuban Sivalingam : CASSCF convergence, NEVPT2, FIC-MRCI
   Bernardo de Souza      : ESD, SOC TD-DFT
   Georgi Stoychev        : AutoAux, RI-MP2 NMR, DLPNO-MP2 response
   Willem Van den Heuvel  : Paramagnetic NMR
   Boris Wezisla          : Elementary symmetry handling
   Frank Wennmohs         : Technical directorship


 We gratefully acknowledge several colleagues who have allowed us to
 interface, adapt or use parts of their codes:
   Stefan Grimme, W. Hujo, H. Kruse, P. Pracht,  : VdW corrections, initial TS optimization,
                  C. Bannwarth, S. Ehlert          DFT functionals, gCP, sTDA/sTD-DF
   Ed Valeev, F. Pavosevic, A. Kumar             : LibInt (2-el integral package), F12 methods
   Garnet Chan, S. Sharma, J. Yang, R. Olivares  : DMRG
   Ulf Ekstrom                                   : XCFun DFT Library
   Mihaly Kallay                                 : mrcc  (arbitrary order and MRCC methods)
   Jiri Pittner, Ondrej Demel                    : Mk-CCSD
   Frank Weinhold                                : gennbo (NPA and NBO analysis)
   Christopher J. Cramer and Donald G. Truhlar   : smd solvation model
   Lars Goerigk                                  : TD-DFT with DH, B97 family of functionals
   V. Asgeirsson, H. Jonsson                     : NEB implementation
   FAccTs GmbH                                   : IRC, NEB, NEB-TS, DLPNO-Multilevel, CI-OPT
                                                   MM, QMMM, 2- and 3-layer-ONIOM, Crystal-QMMM,
                                                   LR-CPCM, SF, NACMEs, symmetry and pop. for TD-DFT,
                                                   nearIR, NL-DFT gradient (VV10), updates on ESD,
                                                   ML-optimized integration grids
   S Lehtola, MJT Oliveira, MAL Marques          : LibXC Library
   Liviu Ungur et al                             : ANISO software


 Your calculation uses the libint2 library for the computation of 2-el integrals
 For citations please refer to: http://libint.valeyev.net

 Your ORCA version has been built with support for libXC version: 5.1.0
 For citations please refer to: https://tddft.org/programs/libxc/

 This ORCA versions uses:
   CBLAS   interface :  Fast vector & matrix operations
   LAPACKE interface :  Fast linear algebra routines
   SCALAPACK package :  Parallel linear algebra routines
   Shared memory     :  Shared parallel matrices
   BLAS/LAPACK       :  OpenBLAS 0.3.15  USE64BITINT DYNAMIC_ARCH NO_AFFINITY Sandybridge SINGLE_THREADED
        Core in use  :  Sandybridge
   Copyright (c) 2011-2014, The OpenBLAS Project


Your calculation utilizes the atom-pairwise dispersion correction
with the zero-damping scheme (D30)
Cite in your paper:
S.Grimme, J.Antony, S.Ehrlich and H.Krieg, J.Chem.Phys., 132, (2010), 154104 
   

XCFun DFT library Copyright 2009-2010 Ulf Ekstrom and contributors.
See http://admol.org/xcfun for more information.
This is free software; see the source code for copying conditions.
There is ABSOLUTELY NO WARRANTY; not even for MERCHANTABILITY or FITNESS FOR A PARTICULAR PURPOSE.
For details see the documentation.
Scientific users of this library should cite U. Ekstrom, L. Visscher, R. Bast, A. J. Thorvaldsen and K. Ruud;
J.Chem.Theor.Comp. 2010, DOI: 10.1021/ct100117s
XCFun Version 0.99 

================================================================================

----- Orbital basis set information -----
Your calculation utilizes the basis: cc-pVDZ 
       H, B-Ne : Obtained from the ccRepo (grant-hill.group.shef.ac.uk/ccrepo) Feb. 2017
                 T. H. Dunning, Jr., J. Chem. Phys. 90, 1007 (1989)
            He : Obtained from the ccRepo (grant-hill.group.shef.ac.uk/ccrepo) Feb. 2017
                 D. E. Woon, T. H. Dunning, Jr., J. Chem. Phys. 100, 2975 (1994)
  Li-Be, Na-Mg : Obtained from the ccRepo (grant-hill.group.shef.ac.uk/ccrepo) Feb. 2017
                 B. P. Prascher, D. E. Woon, K. A. Peterson, T. H. Dunning, Jr., A. K. Wilson, Theor. Chem. Acc. 128, 69 (2011)
         Al-Ar : Obtained from the ccRepo (grant-hill.group.shef.ac.uk/ccrepo) Feb. 2017
                 D. E. Woon, T. H. Dunning, Jr., J. Chem. Phys. 98, 1358 (1993)
            Ca : Obtained from the Peterson Research Group Website (tyr0.chem.wsu.edu/~kipeters) Feb. 2017
                 J. Koput, K. A. Peterson, J. Phys. Chem. 106, 9595 (2002)
         Sc-Zn : Obtained from the ccRepo (grant-hill.group.shef.ac.uk/ccrepo) Feb. 2017
                 N. B. Balabanov, K. A. Peterson, J. Chem. Phys. 123, 064107 (2005)
                 N. B. Balabanov, K. A. Peterson, J. Chem. Phys. 125, 074110 (2006)
         Ga-Kr : Obtained from the ccRepo (grant-hill.group.shef.ac.uk/ccrepo) Feb. 2017
                 A. K. Wilson, D. E. Woon, K. A. Peterson, T. H. Dunning, Jr., J. Chem. Phys. 110, 7667 (1999)

----- AuxJ basis set information -----
Your calculation utilizes the auxiliary basis: def2/J
   F. Weigend, Phys. Chem. Chem. Phys. 8, 1057 (2006).

================================================================================
                                        WARNINGS
                       Please study these warnings very carefully!
================================================================================

INFO   : Checking CIS options ...

WARNING: Geometry Optimization
  ===> : Switching off AutoStart
         For restart on a previous wavefunction, please use MOREAD

WARNING: CIS/ROCIS methods need fully converged wavefunctions
  ===> : Setting SCFConvForced true
         You can overwrite this default with %scf ConvForced false 


INFO   : the flag for use of the SHARK integral package has been found!

================================================================================
                                       INPUT FILE
================================================================================
NAME = calcyn_opt_iroot_4_recook.in
|  1> ! wB97x-D3 cc-pvdz opt 
|  2> 
|  3> %tddft
|  4>  nroots 10
|  5>  tda TRUE
|  6>  IRoot 4
|  7> end
|  8> 
|  9> *xyz 0 1 
| 10>   C      -1.972783      0.800405     -0.017425
| 11>   C      -2.852962      1.874810      0.063010
| 12>   C      -0.526479      0.779193      0.030721
| 13>   C      -2.386915     -0.573353     -0.158947
| 14>   C      -4.270283      1.919220      0.040065
| 15>   O      -2.363689      3.145399      0.197933
| 16>   C      -0.167950     -0.573094     -0.076614
| 17>   C       0.478134      1.741357      0.154467
| 18>   O      -1.277584     -1.378997     -0.191572
| 19>   O      -3.506253     -1.084238     -0.244595
| 20>   C      -4.638748      3.264147      0.168632
| 21>   O      -5.105788      0.891033     -0.077077
| 22>   C      -3.431481      4.040013      0.267517
| 23>   C       1.139928     -1.017279     -0.062996
| 24>   C       1.806277      1.313612      0.168068
| 25>   C      -5.971499      3.815988      0.216003
| 26>   O      -3.234268      5.232070      0.390579
| 27>   C       2.135105     -0.042350      0.062191
| 28>   C      -7.110685      3.000154      0.142957
| 29>   C      -6.197646      5.191149      0.345144
| 30>   C      -8.440221      3.552460      0.195607
| 31>   C      -7.531777      5.732564      0.394482
| 32>   C      -8.658053      4.918895      0.322837
| 33>   H       0.219930      2.797153      0.238432
| 34>   H      -4.564178      0.035810     -0.152363
| 35>   H       1.373666     -2.078937     -0.145353
| 36>   H       2.604980      2.051796      0.264695
| 37>   H       3.183147     -0.347553      0.078018
| 38>   H      -6.985709      1.922339      0.046357
| 39>   H      -5.335482      5.856421      0.411864
| 40>   H      -9.283182      2.862133      0.131337
| 41>   H      -7.640475      6.814198      0.490991
| 42>   H      -9.663847      5.333094      0.362415
| 43> *
| 44> 
| 45>                          ****END OF INPUT****
================================================================================

                       *****************************
                       * Geometry Optimization Run *
                       *****************************

Geometry optimization settings:
Update method            Update   .... BFGS
Choice of coordinates    CoordSys .... Z-matrix Internals
Initial Hessian          InHess   .... Almoef's Model

Convergence Tolerances:
Energy Change            TolE     ....  5.0000e-06 Eh
Max. Gradient            TolMAXG  ....  3.0000e-04 Eh/bohr
RMS Gradient             TolRMSG  ....  1.0000e-04 Eh/bohr
Max. Displacement        TolMAXD  ....  4.0000e-03 bohr
RMS Displacement         TolRMSD  ....  2.0000e-03 bohr
Strict Convergence                ....  False
------------------------------------------------------------------------------
                        ORCA OPTIMIZATION COORDINATE SETUP
------------------------------------------------------------------------------

The optimization will be done in new redundant internal coordinates
Making redundant internal coordinates   ...  (new redundants) done
Evaluating the initial hessian          ...  (Almloef) done
Evaluating the coordinates              ...  done
Calculating the B-matrix                .... done
Calculating the G-matrix                .... done
Diagonalizing the G-matrix              .... done
Small eigenvalue found = 3.029e-03
Small eigenvalue found = 1.428e-02
Small eigenvalue found = 1.618e-02
The first mode is                       ....   86
The number of degrees of freedom        ....   93

    -----------------------------------------------------------------
                    Redundant Internal Coordinates


    -----------------------------------------------------------------
         Definition                    Initial Value    Approx d2E/dq
    -----------------------------------------------------------------
      1. B(C   1,C   0)                  1.3912         0.621971   
      2. B(C   2,C   0)                  1.4473         0.506271   
      3. B(C   3,C   0)                  1.4418         0.516557   
      4. B(C   4,C   1)                  1.4182         0.563305   
      5. B(O   5,C   1)                  1.3682         0.606242   
      6. B(C   6,C   2)                  1.4031         0.595398   
      7. B(C   7,C   2)                  1.3965         0.609968   
      8. B(O   8,C   6)                  1.3762         0.588654   
      9. B(O   8,C   3)                  1.3714         0.599168   
     10. B(O   9,C   3)                  1.2334         0.994794   
     11. B(C  10,C   4)                  1.4004         0.601372   
     12. B(O  11,C   4)                  1.3300         0.697535   
     13. B(C  12,C  10)                  1.4385         0.522858   
     14. B(C  12,O   5)                  1.3948         0.549896   
     15. B(C  13,C   6)                  1.3813         0.645053   
     16. B(C  14,C   7)                  1.3954         0.612546   
     17. B(C  15,C  10)                  1.4433         0.513767   
     18. B(O  16,C  12)                  1.2145         1.066245   
     19. B(C  17,C  14)                  1.3993         0.603866   
     20. B(C  17,C  13)                  1.3988         0.605005   
     21. B(C  18,C  15)                  1.4031         0.595459   
     22. B(C  19,C  15)                  1.3996         0.603140   
     23. B(C  20,C  18)                  1.4407         0.518711   
     24. B(C  21,C  19)                  1.4406         0.518718   
     25. B(C  22,C  21)                  1.3913         0.621843   
     26. B(C  22,C  20)                  1.3895         0.625885   
     27. B(H  23,C   7)                  1.0901         0.359903   
     28. B(H  24,O  11)                  1.0151         0.424686   
     29. B(H  25,C  13)                  1.0902         0.359837   
     30. B(H  26,C  14)                  1.0919         0.357635   
     31. B(H  27,C  17)                  1.0917         0.357869   
     32. B(H  28,C  18)                  1.0893         0.360990   
     33. B(H  29,C  19)                  1.0910         0.358729   
     34. B(H  30,C  20)                  1.0915         0.358186   
     35. B(H  31,C  21)                  1.0914         0.358309   
     36. B(H  32,C  22)                  1.0885         0.362141   
     37. A(C   2,C   0,C   3)          106.0422         0.405257   
     38. A(C   1,C   0,C   3)          124.0408         0.420338   
     39. A(C   1,C   0,C   2)          129.9141         0.418833   
     40. A(C   4,C   1,O   5)          109.2624         0.422182   
     41. A(C   0,C   1,C   4)          130.9587         0.426900   
     42. A(C   0,C   1,O   5)          119.7773         0.429738   
     43. A(C   0,C   2,C   6)          105.4819         0.415590   
     44. A(C   0,C   2,C   7)          135.3761         0.417382   
     45. A(C   6,C   2,C   7)          119.1416         0.429658   
     46. A(C   0,C   3,O   9)          131.4647         0.454467   
     47. A(C   0,C   3,O   8)          109.2525         0.414845   
     48. A(O   8,C   3,O   9)          119.2826         0.463837   
     49. A(C   1,C   4,O  11)          127.2300         0.432930   
     50. A(C   1,C   4,C  10)          106.9501         0.424334   
     51. A(C  10,C   4,O  11)          125.8198         0.438058   
     52. A(C   1,O   5,C  12)          109.0745         0.417643   
     53. A(O   8,C   6,C  13)          125.1656         0.430278   
     54. A(C   2,C   6,O   8)          111.3916         0.424146   
     55. A(C   2,C   6,C  13)          123.4426         0.433998   
     56. A(C   2,C   7,C  14)          118.3176         0.431854   
     57. A(C   2,C   7,H  23)          120.2448         0.351904   
     58. A(C  14,C   7,H  23)          121.4375         0.352155   
     59. A(C   3,O   8,C   6)          107.8311         0.421863   
     60. A(C  12,C  10,C  15)          124.5076         0.407183   
     61. A(C   4,C  10,C  15)          127.8207         0.417419   
     62. A(C   4,C  10,C  12)          107.6671         0.418726   
     63. A(C   4,O  11,H  24)          108.8242         0.364787   
     64. A(C  10,C  12,O  16)          132.2709         0.461270   
     65. A(O   5,C  12,O  16)          120.6833         0.462444   
     66. A(O   5,C  12,C  10)          107.0457         0.409456   
     67. A(C   6,C  13,C  17)          116.7692         0.435250   
     68. A(C  17,C  13,H  25)          122.2063         0.351407   
     69. A(C   6,C  13,H  25)          121.0245         0.355242   
     70. A(C   7,C  14,C  17)          121.3315         0.431075   
     71. A(C  17,C  14,H  26)          119.3367         0.350931   
     72. A(C   7,C  14,H  26)          119.3317         0.351779   
     73. A(C  10,C  15,C  18)          121.7162         0.416686   
     74. A(C  18,C  15,C  19)          116.4180         0.428799   
     75. A(C  10,C  15,C  19)          121.8648         0.417638   
     76. A(C  13,C  17,C  14)          120.9972         0.430117   
     77. A(C  14,C  17,H  27)          119.6975         0.350970   
     78. A(C  13,C  17,H  27)          119.3052         0.351082   
     79. A(C  20,C  18,H  28)          119.2381         0.342608   
     80. A(C  15,C  18,H  28)          119.1290         0.350654   
     81. A(C  15,C  18,C  20)          121.6328         0.417397   
     82. A(C  21,C  19,H  29)          120.0361         0.342248   
     83. A(C  15,C  19,H  29)          118.4943         0.351041   
     84. A(C  15,C  19,C  21)          121.4694         0.418352   
     85. A(C  22,C  20,H  30)          120.4171         0.353155   
     86. A(C  18,C  20,H  30)          117.9131         0.342161   
     87. A(C  18,C  20,C  22)          121.6698         0.421122   
     88. A(C  22,C  21,H  31)          120.2349         0.352788   
     89. A(C  19,C  21,H  31)          117.8869         0.342181   
     90. A(C  19,C  21,C  22)          121.8782         0.420636   
     91. A(C  21,C  22,H  32)          121.5751         0.353424   
     92. A(C  20,C  22,H  32)          121.4935         0.353812   
     93. A(C  20,C  22,C  21)          116.9312         0.435037   
     94. D(O   5,C   1,C   0,C   3)    179.9347         0.026779   
     95. D(O   5,C   1,C   0,C   2)      0.6454         0.026779   
     96. D(C   4,C   1,C   0,C   3)      0.4484         0.026779   
     97. D(C   4,C   1,C   0,C   2)   -178.8409         0.026779   
     98. D(C   7,C   2,C   0,C   1)     -0.6205         0.017464   
     99. D(C   6,C   2,C   0,C   1)    179.1582         0.017464   
    100. D(C   7,C   2,C   0,C   3)    179.9924         0.017464   
    101. D(C   6,C   2,C   0,C   3)     -0.2289         0.017464   
    102. D(O   9,C   3,C   0,C   2)    179.9736         0.018192   
    103. D(O   8,C   3,C   0,C   1)   -179.2777         0.018192   
    104. D(O   8,C   3,C   0,C   2)      0.1551         0.018192   
    105. D(O   9,C   3,C   0,C   1)      0.5409         0.018192   
    106. D(C  10,C   4,C   1,O   5)     -0.1210         0.021746   
    107. D(O  11,C   4,C   1,C   0)     -0.4445         0.021746   
    108. D(C  10,C   4,C   1,C   0)    179.4067         0.021746   
    109. D(O  11,C   4,C   1,O   5)   -179.9722         0.021746   
    110. D(C  12,O   5,C   1,C   0)   -179.5104         0.026880   
    111. D(C  12,O   5,C   1,C   4)      0.0787         0.026880   
    112. D(C  13,C   6,C   2,C   7)      0.2036         0.024418   
    113. D(O   8,C   6,C   2,C   7)   -179.9456         0.024418   
    114. D(O   8,C   6,C   2,C   0)      0.2324         0.024418   
    115. D(C  13,C   6,C   2,C   0)   -179.6184         0.024418   
    116. D(H  23,C   7,C   2,C   6)    179.9604         0.025696   
    117. D(H  23,C   7,C   2,C   0)     -0.2837         0.025696   
    118. D(C  14,C   7,C   2,C   6)     -0.0867         0.025696   
    119. D(C  14,C   7,C   2,C   0)    179.6691         0.025696   
    120. D(C   3,O   8,C   6,C  13)    179.7082         0.025246   
    121. D(C   3,O   8,C   6,C   2)     -0.1395         0.025246   
    122. D(C   6,O   8,C   3,O   9)   -179.8593         0.026215   
    123. D(C   6,O   8,C   3,C   0)     -0.0152         0.026215   
    124. D(C  12,C  10,C   4,C   1)      0.1147         0.024937   
    125. D(C  15,C  10,C   4,O  11)      0.7279         0.024937   
    126. D(C  15,C  10,C   4,C   1)   -179.1260         0.024937   
    127. D(C  12,C  10,C   4,O  11)    179.9686         0.024937   
    128. D(H  24,O  11,C   4,C  10)   -179.9239         0.036412   
    129. D(H  24,O  11,C   4,C   1)     -0.0995         0.036412   
    130. D(O  16,C  12,C  10,C  15)     -0.7285         0.018648   
    131. D(O  16,C  12,C  10,C   4)    179.9994         0.018648   
    132. D(O   5,C  12,C  10,C  15)    179.2031         0.018648   
    133. D(O   5,C  12,C  10,C   4)     -0.0690         0.018648   
    134. D(O  16,C  12,O   5,C   1)    179.9351         0.021870   
    135. D(C  10,C  12,O   5,C   1)     -0.0061         0.021870   
    136. D(H  25,C  13,C   6,O   8)     -0.0663         0.028941   
    137. D(H  25,C  13,C   6,C   2)    179.7638         0.028941   
    138. D(C  17,C  13,C   6,O   8)   -179.9981         0.028941   
    139. D(C  17,C  13,C   6,C   2)     -0.1680         0.028941   
    140. D(H  26,C  14,C   7,H  23)     -0.0114         0.025926   
    141. D(H  26,C  14,C   7,C   2)   -179.9636         0.025926   
    142. D(C  17,C  14,C   7,H  23)    179.9013         0.025926   
    143. D(C  17,C  14,C   7,C   2)     -0.0509         0.025926   
    144. D(C  19,C  15,C  10,C  12)      1.0221         0.017993   
    145. D(C  19,C  15,C  10,C   4)   -179.8560         0.017993   
    146. D(C  18,C  15,C  10,C  12)   -178.5892         0.017993   
    147. D(C  18,C  15,C  10,C   4)      0.5327         0.017993   
    148. D(H  27,C  17,C  14,H  26)      0.0492         0.025156   
    149. D(H  27,C  17,C  14,C   7)   -179.8635         0.025156   
    150. D(C  13,C  17,C  14,H  26)    179.9976         0.025156   
    151. D(C  13,C  17,C  14,C   7)      0.0849         0.025156   
    152. D(H  27,C  17,C  13,H  25)      0.0405         0.025256   
    153. D(H  27,C  17,C  13,C   6)    179.9714         0.025256   
    154. D(C  14,C  17,C  13,H  25)   -179.9082         0.025256   
    155. D(C  14,C  17,C  13,C   6)      0.0227         0.025256   
    156. D(C  20,C  18,C  15,C  10)    179.7564         0.024424   
    157. D(H  28,C  18,C  15,C  19)   -179.7320         0.024424   
    158. D(H  28,C  18,C  15,C  10)     -0.1006         0.024424   
    159. D(C  20,C  18,C  15,C  19)      0.1250         0.024424   
    160. D(H  29,C  19,C  15,C  18)    179.5855         0.025092   
    161. D(H  29,C  19,C  15,C  10)     -0.0453         0.025092   
    162. D(C  21,C  19,C  15,C  18)     -0.2319         0.025092   
    163. D(C  21,C  19,C  15,C  10)   -179.8627         0.025092   
    164. D(H  30,C  20,C  18,H  28)     -0.2779         0.018348   
    165. D(H  30,C  20,C  18,C  15)    179.8653         0.018348   
    166. D(C  22,C  20,C  18,H  28)    179.7773         0.018348   
    167. D(C  22,C  20,C  18,C  15)     -0.0795         0.018348   
    168. D(H  31,C  21,C  19,H  29)      0.4900         0.018348   
    169. D(H  31,C  21,C  19,C  15)   -179.6954         0.018348   
    170. D(C  22,C  21,C  19,H  29)   -179.5109         0.018348   
    171. D(C  22,C  21,C  19,C  15)      0.3037         0.018348   
    172. D(H  32,C  22,C  21,H  31)     -0.1144         0.026767   
    173. D(H  32,C  22,C  21,C  19)    179.8865         0.026767   
    174. D(C  20,C  22,C  21,H  31)    179.7583         0.026767   
    175. D(C  20,C  22,C  21,C  19)     -0.2408         0.026767   
    176. D(H  32,C  22,C  20,H  30)      0.0618         0.027138   
    177. D(H  32,C  22,C  20,C  18)   -179.9948         0.027138   
    178. D(C  21,C  22,C  20,H  30)   -179.8111         0.027138   
    179. D(C  21,C  22,C  20,C  18)      0.1324         0.027138   
    -----------------------------------------------------------------

Number of atoms                         .... 33
Number of degrees of freedom            .... 179

         *************************************************************
         *                GEOMETRY OPTIMIZATION CYCLE   1            *
         *************************************************************
---------------------------------
CARTESIAN COORDINATES (ANGSTROEM)
---------------------------------
  C     -1.972783    0.800405   -0.017425
  C     -2.852962    1.874810    0.063010
  C     -0.526479    0.779193    0.030721
  C     -2.386915   -0.573353   -0.158947
  C     -4.270283    1.919220    0.040065
  O     -2.363689    3.145399    0.197933
  C     -0.167950   -0.573094   -0.076614
  C      0.478134    1.741357    0.154467
  O     -1.277584   -1.378997   -0.191572
  O     -3.506253   -1.084238   -0.244595
  C     -4.638748    3.264147    0.168632
  O     -5.105788    0.891033   -0.077077
  C     -3.431481    4.040013    0.267517
  C      1.139928   -1.017279   -0.062996
  C      1.806277    1.313612    0.168068
  C     -5.971499    3.815988    0.216003
  O     -3.234268    5.232070    0.390579
  C      2.135105   -0.042350    0.062191
  C     -7.110685    3.000154    0.142957
  C     -6.197646    5.191149    0.345144
  C     -8.440221    3.552460    0.195607
  C     -7.531777    5.732564    0.394482
  C     -8.658053    4.918895    0.322837
  H      0.219930    2.797153    0.238432
  H     -4.564178    0.035810   -0.152363
  H      1.373666   -2.078937   -0.145353
  H      2.604980    2.051796    0.264695
  H      3.183147   -0.347553    0.078018
  H     -6.985709    1.922339    0.046357
  H     -5.335482    5.856421    0.411864
  H     -9.283182    2.862133    0.131337
  H     -7.640475    6.814198    0.490991
  H     -9.663847    5.333094    0.362415

----------------------------
CARTESIAN COORDINATES (A.U.)
----------------------------
  NO LB      ZA    FRAG     MASS         X           Y           Z
   0 C     6.0000    0    12.011   -3.728020    1.512546   -0.032928
   1 C     6.0000    0    12.011   -5.391317    3.542877    0.119072
   2 C     6.0000    0    12.011   -0.994901    1.472461    0.058054
   3 C     6.0000    0    12.011   -4.510616   -1.083480   -0.300366
   4 C     6.0000    0    12.011   -8.069665    3.626800    0.075712
   5 O     8.0000    0    15.999   -4.466725    5.943943    0.374039
   6 C     6.0000    0    12.011   -0.317380   -1.082991   -0.144779
   7 C     6.0000    0    12.011    0.903542    3.290688    0.291900
   8 O     8.0000    0    15.999   -2.414284   -2.605927   -0.362019
   9 O     8.0000    0    15.999   -6.625858   -2.048913   -0.462218
  10 C     6.0000    0    12.011   -8.765963    6.168344    0.318668
  11 O     8.0000    0    15.999   -9.648541    1.683808   -0.145654
  12 C     6.0000    0    12.011   -6.484559    7.634518    0.505534
  13 C     6.0000    0    12.011    2.154152   -1.922379   -0.119045
  14 C     6.0000    0    12.011    3.413369    2.482367    0.317602
  15 C     6.0000    0    12.011  -11.284498    7.211172    0.408187
  16 O     8.0000    0    15.999   -6.111881    9.887179    0.738087
  17 C     6.0000    0    12.011    4.034764   -0.080030    0.117524
  18 C     6.0000    0    12.011  -13.437247    5.669469    0.270150
  19 C     6.0000    0    12.011  -11.711854    9.809850    0.652228
  20 C     6.0000    0    12.011  -15.949706    6.713177    0.369644
  21 C     6.0000    0    12.011  -14.232996   10.832976    0.745463
  22 C     6.0000    0    12.011  -16.361349    9.295364    0.610074
  23 H     1.0000    0     1.008    0.415607    5.285853    0.450571
  24 H     1.0000    0     1.008   -8.625046    0.067671   -0.287924
  25 H     1.0000    0     1.008    2.595853   -3.928622   -0.274677
  26 H     1.0000    0     1.008    4.922699    3.877333    0.500201
  27 H     1.0000    0     1.008    6.015276   -0.656780    0.147433
  28 H     1.0000    0     1.008  -13.201077    3.632694    0.087602
  29 H     1.0000    0     1.008  -10.082600   11.067032    0.778310
  30 H     1.0000    0     1.008  -17.542672    5.408648    0.248191
  31 H     1.0000    0     1.008  -14.438405   12.876968    0.927839
  32 H     1.0000    0     1.008  -18.262024   10.078087    0.684865

--------------------------------
INTERNAL COORDINATES (ANGSTROEM)
--------------------------------
 C      0   0   0     0.000000000000     0.00000000     0.00000000
 C      1   0   0     1.391233612766     0.00000000     0.00000000
 C      1   2   0     1.447260600817   129.91408189     0.00000000
 C      1   2   3     1.441785293472   124.04076026   179.28923749
 C      2   1   3     1.418202220477   130.95873699   181.15913132
 O      2   1   3     1.368206377481   119.77726809     0.64544967
 C      3   1   2     1.403119373551   105.48194751   179.15824230
 C      3   1   2     1.396538547689   135.37614840   359.37953065
 O      4   1   2     1.371401441199   109.25249646   180.72233710
 O      4   1   2     1.233392322569   131.46467164     0.54085182
 C      5   2   1     1.400401572779   106.95010490   179.40673994
 O      5   2   1     1.330022315662   127.22995802   359.55554103
 C      6   2   1     1.394760157631   109.07448852   180.48961617
 C      7   3   1     1.381314818220   123.44257657   180.38159689
 C      8   3   1     1.395390483225   118.31764602   179.66913258
 C     11   5   2     1.443259411514   127.82065562   180.87401220
 O     13   6   2     1.214511059835   120.68334439   179.93506393
 C     14   7   3     1.398762167539   116.76916117   359.83199563
 C     16  11   5     1.403091435462   121.71620268     0.53273685
 C     16  11   5     1.399602671979   121.86477197   180.14403171
 C     19  16  11     1.440652600536   121.63278354   179.75641994
 C     20  16  11     1.440649147305   121.46938439   180.13727888
 C     21  19  16     1.389526128703   121.66980932   359.92046915
 H      8   3   1     1.090148898296   120.24481686   359.71626838
 H     12   5   2     1.015093962954   108.82422387   359.90053111
 H     14   7   3     1.090198989661   121.02449791   179.76379543
 H     15   8   3     1.091869441460   119.33174847   180.03636271
 H     18  14   7     1.091691989025   119.30524185   179.97140961
 H     19  16  11     1.089328111636   119.12897842   359.89941233
 H     20  16  11     1.091038567274   118.49425288   359.95469006
 H     21  19  16     1.091450982569   117.91310406   179.86529063
 H     22  20  16     1.091357573044   117.88692551   180.30458902
 H     23  21  19     1.088461666813   121.49354953   180.00521323

---------------------------
INTERNAL COORDINATES (A.U.)
---------------------------
 C      0   0   0     0.000000000000     0.00000000     0.00000000
 C      1   0   0     2.629050516434     0.00000000     0.00000000
 C      1   2   0     2.734926179958   129.91408189     0.00000000
 C      1   2   3     2.724579348577   124.04076026   179.28923749
 C      2   1   3     2.680013799221   130.95873699   181.15913132
 O      2   1   3     2.585535348123   119.77726809     0.64544967
 C      3   1   2     2.651511349211   105.48194751   179.15824230
 C      3   1   2     2.639075390596   135.37614840   359.37953065
 O      4   1   2     2.591573143531   109.25249646   180.72233710
 O      4   1   2     2.330773705337   131.46467164     0.54085182
 C      5   2   1     2.646375450066   106.95010490   179.40673994
 O      5   2   1     2.513377928604   127.22995802   359.55554103
 C      6   2   1     2.635714720428   109.07448852   180.48961617
 C      7   3   1     2.610306711162   123.44257657   180.38159689
 C      8   3   1     2.636905863175   118.31764602   179.66913258
 C     11   5   2     2.727365027965   127.82065562   180.87401220
 O     13   6   2     2.295093289707   120.68334439   179.93506393
 C     14   7   3     2.643277423139   116.76916117   359.83199563
 C     16  11   5     2.651458553874   121.71620268     0.53273685
 C     16  11   5     2.644865746345   121.86477197   180.14403171
 C     19  16  11     2.722438869135   121.63278354   179.75641994
 C     20  16  11     2.722432343473   121.46938439   180.13727888
 C     21  19  16     2.625823839177   121.66980932   359.92046915
 H      8   3   1     2.060082862976   120.24481686   359.71626838
 H     12   5   2     1.918249590179   108.82422387   359.90053111
 H     14   7   3     2.060177521936   121.02449791   179.76379543
 H     15   8   3     2.063334218357   119.33174847   180.03636271
 H     18  14   7     2.062998881854   119.30524185   179.97140961
 H     19  16  11     2.058531800974   119.12897842   359.89941233
 H     20  16  11     2.061764093694   118.49425288   359.95469006
 H     21  19  16     2.062543445654   117.91310406   179.86529063
 H     22  20  16     2.062366927235   117.88692551   180.30458902
 H     23  21  19     2.056894457548   121.49354953   180.00521323

---------------------
BASIS SET INFORMATION
---------------------
There are 3 groups of distinct atoms

 Group   1 Type C   : 17s4p1d contracted to 3s2p1d pattern {881/31/1}
 Group   2 Type O   : 17s4p1d contracted to 3s2p1d pattern {881/31/1}
 Group   3 Type H   : 4s1p contracted to 2s1p pattern {31/1}

Atom   0C    basis set group =>   1
Atom   1C    basis set group =>   1
Atom   2C    basis set group =>   1
Atom   3C    basis set group =>   1
Atom   4C    basis set group =>   1
Atom   5O    basis set group =>   2
Atom   6C    basis set group =>   1
Atom   7C    basis set group =>   1
Atom   8O    basis set group =>   2
Atom   9O    basis set group =>   2
Atom  10C    basis set group =>   1
Atom  11O    basis set group =>   2
Atom  12C    basis set group =>   1
Atom  13C    basis set group =>   1
Atom  14C    basis set group =>   1
Atom  15C    basis set group =>   1
Atom  16O    basis set group =>   2
Atom  17C    basis set group =>   1
Atom  18C    basis set group =>   1
Atom  19C    basis set group =>   1
Atom  20C    basis set group =>   1
Atom  21C    basis set group =>   1
Atom  22C    basis set group =>   1
Atom  23H    basis set group =>   3
Atom  24H    basis set group =>   3
Atom  25H    basis set group =>   3
Atom  26H    basis set group =>   3
Atom  27H    basis set group =>   3
Atom  28H    basis set group =>   3
Atom  29H    basis set group =>   3
Atom  30H    basis set group =>   3
Atom  31H    basis set group =>   3
Atom  32H    basis set group =>   3
---------------------------------
AUXILIARY/J BASIS SET INFORMATION
---------------------------------
There are 3 groups of distinct atoms

 Group   1 Type C   : 12s5p4d2f1g contracted to 6s4p3d1f1g pattern {711111/2111/211/2/1}
 Group   2 Type O   : 12s5p4d2f1g contracted to 6s4p3d1f1g pattern {711111/2111/211/2/1}
 Group   3 Type H   : 5s2p1d contracted to 3s1p1d pattern {311/2/1}

Atom   0C    basis set group =>   1
Atom   1C    basis set group =>   1
Atom   2C    basis set group =>   1
Atom   3C    basis set group =>   1
Atom   4C    basis set group =>   1
Atom   5O    basis set group =>   2
Atom   6C    basis set group =>   1
Atom   7C    basis set group =>   1
Atom   8O    basis set group =>   2
Atom   9O    basis set group =>   2
Atom  10C    basis set group =>   1
Atom  11O    basis set group =>   2
Atom  12C    basis set group =>   1
Atom  13C    basis set group =>   1
Atom  14C    basis set group =>   1
Atom  15C    basis set group =>   1
Atom  16O    basis set group =>   2
Atom  17C    basis set group =>   1
Atom  18C    basis set group =>   1
Atom  19C    basis set group =>   1
Atom  20C    basis set group =>   1
Atom  21C    basis set group =>   1
Atom  22C    basis set group =>   1
Atom  23H    basis set group =>   3
Atom  24H    basis set group =>   3
Atom  25H    basis set group =>   3
Atom  26H    basis set group =>   3
Atom  27H    basis set group =>   3
Atom  28H    basis set group =>   3
Atom  29H    basis set group =>   3
Atom  30H    basis set group =>   3
Atom  31H    basis set group =>   3
Atom  32H    basis set group =>   3
------------------------------------------------------------------------------
                           ORCA GTO INTEGRAL CALCULATION
                           -- RI-GTO INTEGRALS CHOSEN --
------------------------------------------------------------------------------
------------------------------------------------------------------------------
                   ___                                                        
                  /   \      - P O W E R E D   B Y -                         
                 /     \                                                     
                 |  |  |   _    _      __       _____    __    __             
                 |  |  |  | |  | |    /  \     |  _  \  |  |  /  |          
                  \  \/   | |  | |   /    \    | | | |  |  | /  /          
                 / \  \   | |__| |  /  /\  \   | |_| |  |  |/  /          
                |  |  |   |  __  | /  /__\  \  |    /   |      \           
                |  |  |   | |  | | |   __   |  |    \   |  |\   \          
                \     /   | |  | | |  |  |  |  | |\  \  |  | \   \       
                 \___/    |_|  |_| |__|  |__|  |_| \__\ |__|  \__/        
                                                                              
                      - O R C A' S   B I G   F R I E N D -                    
                                      &                                       
                       - I N T E G R A L  F E E D E R -                       
                                                                              
 v1 FN, 2020, v2 2021                                                         
------------------------------------------------------------------------------


Reading SHARK input file calcyn_opt_iroot_4_recook.SHARKINP.tmp ... ok
----------------------
SHARK INTEGRAL PACKAGE
----------------------

Number of atoms                             ...     33
Number of basis functions                   ...    510
Number of shells                            ...    306
Maximum angular momentum                    ...      2
Integral batch strategy                     ... SHARK/LIBINT Hybrid
RI-J (if used) integral strategy            ... SPLIT-RIJ (Revised 2003 algorithm where possible)
Printlevel                                  ...      1
Contraction scheme used                     ... PARTIAL GENERAL contraction
Coulomb Range Separation                    ... NOT USED
Exchange Range Separation                   ... Long Range
   Mu parameter                             ...  0.250000
   Scaling (regular/separated)              ...  0.195728  0.804272
Finite Nucleus Model                        ... NOT USED
Auxiliary Coulomb fitting basis             ... AVAILABLE
   # of basis functions in Aux-J            ...   1237
   # of shells in Aux-J                     ...    395
   Maximum angular momentum in Aux-J        ...      4
Auxiliary J/K fitting basis                 ... NOT available
Auxiliary Correlation fitting basis         ... NOT available
Auxiliary 'external' fitting basis          ... NOT available
Integral threshold                          ...     2.500000e-11
Primitive cut-off                           ...     2.500000e-12
Primitive pair pre-selection threshold      ...     2.500000e-12

Calculating pre-screening integrals         ... done (  0.1 sec) Dimension = 306
Calculating pre-screening integrals (ORCA)  ... done (  0.5 sec) Dimension = 168
Organizing shell pair data                  ... done (  0.2 sec)
Shell pair information
Total number of shell pairs                 ...     46971
Shell pairs after pre-screening             ...     20327
Total number of primitive shell pairs       ...     69477
Primitive shell pairs kept                  ...     26519
          la=0 lb=0:   8268 shell pairs
          la=1 lb=0:   7280 shell pairs
          la=1 lb=1:   1165 shell pairs
          la=2 lb=0:   2558 shell pairs
          la=2 lb=1:    882 shell pairs
          la=2 lb=2:    174 shell pairs

Calculating one electron integrals          ... done (  0.2 sec)
Calculating RI/J V-Matrix + Cholesky decomp.... done (  0.3 sec)
Calculating Nuclear repulsion               ... done (  0.0 sec) ENN=   1757.277941117656 Eh

SHARK setup successfully completed in   2.0 seconds

Maximum memory used throughout the entire GTOINT-calculation: 83.7 MB
-------------------------------------------------------------------------------
                                 ORCA SCF
-------------------------------------------------------------------------------

------------
SCF SETTINGS
------------
Hamiltonian:
 Density Functional     Method          .... DFT(GTOs)
 Exchange Functional    Exchange        .... WB97X-D3
 Correlation Functional Correlation     .... WB97X-D3
 Gradients option       PostSCFGGA      .... off
 Hybrid DFT is turned on
   Fraction HF Exchange ScalHFX         ....  0.195728
   Scaling of DF-GGA-X  ScalDFX         ....  0.000000
   Scaling of DF-GGA-C  ScalDFC         ....  1.000000
   Scaling of DF-LDA-C  ScalLDAC        ....  1.000000
   Perturbative correction              ....  0.000000
   Density functional embedding theory  .... OFF
 Long-range corrected/Screened/Range-Separated Hybrid DFT is turned on
   Amount of maximum screened exact exchange              ....  0.804272
   Range separation parameter mu (erf(mu*r12)/r12)        ....  0.250000
 RI-approximation to the Coulomb term is turned on
   Number of AuxJ basis functions       .... 1237
   RIJ-COSX (HFX calculated with COS-X)).... on


General Settings:
 Integral files         IntName         .... calcyn_opt_iroot_4_recook
 Hartree-Fock type      HFTyp           .... RHF
 Total Charge           Charge          ....    0
 Multiplicity           Mult            ....    1
 Number of Electrons    NEL             ....  158
 Basis Dimension        Dim             ....  372
 Nuclear Repulsion      ENuc            ....   1757.2779411177 Eh

Convergence Acceleration:
 DIIS                   CNVDIIS         .... on
   Start iteration      DIISMaxIt       ....    12
   Startup error        DIISStart       ....  0.200000
   # of expansion vecs  DIISMaxEq       ....     5
   Bias factor          DIISBfac        ....   1.050
   Max. coefficient     DIISMaxC        ....  10.000
 Trust-Rad. Augm. Hess. CNVTRAH         .... auto
   Auto Start mean grad. ratio tolernc. ....  1.125000
   Auto Start start iteration           ....    20
   Auto Start num. interpolation iter.  ....    10
   Max. Number of Micro iterations      ....    16
   Max. Number of Macro iterations      .... Maxiter - #DIIS iter
   Number of Davidson start vectors     ....     2
   Converg. threshold I  (grad. norm)   ....   1.000e-05
   Converg. threshold II (energy diff.) ....   1.000e-08
   Grad. Scal. Fac. for Micro threshold ....   0.100
   Minimum threshold for Micro iter.    ....   0.010
   NR start threshold (gradient norm)   ....   0.001
   Initial trust radius                 ....   0.400
   Minimum AH scaling param. (alpha)    ....   1.000
   Maximum AH scaling param. (alpha)    .... 1000.000
   Orbital update algorithm             .... Taylor
   White noise on init. David. guess    .... on
   Maximum white noise                  ....   0.010
   Quad. conv. algorithm                .... NR
 SOSCF                  CNVSOSCF        .... on
   Start iteration      SOSCFMaxIt      ....   150
   Startup grad/error   SOSCFStart      ....  0.003300
 Level Shifting         CNVShift        .... on
   Level shift para.    LevelShift      ....    0.2500
   Turn off err/grad.   ShiftErr        ....    0.0010
 Zerner damping         CNVZerner       .... off
 Static damping         CNVDamp         .... on
   Fraction old density DampFac         ....    0.7000
   Max. Damping (<1)    DampMax         ....    0.9800
   Min. Damping (>=0)   DampMin         ....    0.0000
   Turn off err/grad.   DampErr         ....    0.1000
 Fernandez-Rico         CNVRico         .... off

SCF Procedure:
 Maximum # iterations   MaxIter         ....   125
 SCF integral mode      SCFMode         .... Direct
   Integral package                     .... SHARK and LIBINT hybrid scheme
 Reset frequency        DirectResetFreq ....    20
 Integral Threshold     Thresh          ....  2.500e-11 Eh
 Primitive CutOff       TCut            ....  2.500e-12 Eh

Convergence Tolerance:
 Convergence Check Mode ConvCheckMode   .... Total+1el-Energy
 Convergence forced     ConvForced      .... 1
 Energy Change          TolE            ....  1.000e-08 Eh
 1-El. energy change                    ....  1.000e-05 Eh
 Orbital Gradient       TolG            ....  1.000e-05
 Orbital Rotation angle TolX            ....  1.000e-05
 DIIS Error             TolErr          ....  5.000e-07


Diagonalization of the overlap matrix:
Smallest eigenvalue                        ... 2.194e-04
Time for diagonalization                   ...    0.200 sec
Threshold for overlap eigenvalues          ... 1.000e-08
Number of eigenvalues below threshold      ... 0
Time for construction of square roots      ...    0.025 sec
Total time needed                          ...    0.226 sec

Time for model grid setup =    1.580 sec

------------------------------
INITIAL GUESS: MODEL POTENTIAL
------------------------------
Loading Hartree-Fock densities                     ... done
Calculating cut-offs                               ... done
Initializing the effective Hamiltonian             ... done
Setting up the integral package (SHARK)            ... done
Starting the Coulomb interaction                   ... done (   2.4 sec)
Reading the grid                                   ... done
Mapping shells                                     ... done
Starting the XC term evaluation                    ... done (   1.4 sec)
  promolecular density results
     # of electrons  =    157.995515069
     EX              =   -135.842305630
     EC              =     -5.364329149
     EX+EC           =   -141.206634779
Transforming the Hamiltonian                       ... done (   0.0 sec)
Diagonalizing the Hamiltonian                      ... done (   0.0 sec)
Back transforming the eigenvectors                 ... done (   0.0 sec)
Now organizing SCF variables                       ... done
                      ------------------
                      INITIAL GUESS DONE (   5.4 sec)
                      ------------------
-------------------
DFT GRID GENERATION
-------------------

General Integration Accuracy     IntAcc      ... 4.388
Radial Grid Type                 RadialGrid  ... OptM3 with GC (2021)
Angular Grid (max. ang.)         AngularGrid ... 4 (Lebedev-302)
Angular grid pruning method      GridPruning ... 4 (adaptive)
Weight generation scheme         WeightScheme... Becke
Basis function cutoff            BFCut       ... 1.0000e-11
Integration weight cutoff        WCut        ... 1.0000e-14
Angular grids for H and He will be reduced by one unit
Partially contracted basis set               ... off
Rotationally invariant grid construction     ... off

Total number of grid points                  ...   169726
Total number of batches                      ...     2671
Average number of points per batch           ...       63
Average number of grid points per atom       ...     5143
Time for grid setup =    4.817 sec

--------------------
COSX GRID GENERATION
--------------------

GRIDX 1
-------
General Integration Accuracy     IntAcc      ... 3.816
Radial Grid Type                 RadialGrid  ... OptM3 with GC (2021)
Angular Grid (max. ang.)         AngularGrid ... 1 (Lebedev-50)
Angular grid pruning method      GridPruning ... 4 (adaptive)
Weight generation scheme         WeightScheme... Becke
Basis function cutoff            BFCut       ... 1.0000e-11
Integration weight cutoff        WCut        ... 1.0000e-14
Angular grids for H and He will be reduced by one unit
Partially contracted basis set               ... on
Rotationally invariant grid construction     ... off

Total number of grid points                  ...    21567
Total number of batches                      ...      354
Average number of points per batch           ...       60
Average number of grid points per atom       ...      654
UseSFitting                                  ... on

GRIDX 2
-------
General Integration Accuracy     IntAcc      ... 4.020
Radial Grid Type                 RadialGrid  ... OptM3 with GC (2021)
Angular Grid (max. ang.)         AngularGrid ... 2 (Lebedev-110)
Angular grid pruning method      GridPruning ... 4 (adaptive)
Weight generation scheme         WeightScheme... Becke
Basis function cutoff            BFCut       ... 1.0000e-11
Integration weight cutoff        WCut        ... 1.0000e-14
Angular grids for H and He will be reduced by one unit
Partially contracted basis set               ... on
Rotationally invariant grid construction     ... off

Total number of grid points                  ...    48127
Total number of batches                      ...      769
Average number of points per batch           ...       62
Average number of grid points per atom       ...     1458
UseSFitting                                  ... on

GRIDX 3
-------
General Integration Accuracy     IntAcc      ... 4.338
Radial Grid Type                 RadialGrid  ... OptM3 with GC (2021)
Angular Grid (max. ang.)         AngularGrid ... 3 (Lebedev-194)
Angular grid pruning method      GridPruning ... 4 (adaptive)
Weight generation scheme         WeightScheme... Becke
Basis function cutoff            BFCut       ... 1.0000e-11
Integration weight cutoff        WCut        ... 1.0000e-14
Angular grids for H and He will be reduced by one unit
Partially contracted basis set               ... on
Rotationally invariant grid construction     ... off

Total number of grid points                  ...   105859
Total number of batches                      ...     1668
Average number of points per batch           ...       63
Average number of grid points per atom       ...     3208
UseSFitting                                  ... on

Time for X-Grid setup             =    6.920 sec

 re-compute Schwartz prescreening matrix in partically contracted basis (1) ...done (   0.440 sec)
--------------
SCF ITERATIONS
--------------
ITER       Energy         Delta-E        Max-DP      RMS-DP      [F,P]     Damp
               ***  Starting incremental Fock matrix formation  ***
  0  -1067.4006569331   0.000000000000 0.08178107  0.00155635  0.2373951 0.7000
  1  -1067.5887448969  -0.188087963716 0.05093209  0.00112380  0.1075644 0.7000
                               ***Turning on DIIS***
  2  -1067.6746693457  -0.085924448886 0.06979615  0.00216823  0.0392840 0.0000
