[Molden Format]
[Title]
 Molden file created by orca_2mkl for BaseName=calcyn_opt_iroot_1

[Atoms] AU
C    1   6         -3.7514822528         1.5118175861        -0.0530740662 
C    2   6         -5.3951715805         3.5621729378         0.0812480593 
C    3   6         -1.0024705275         1.4686666265         0.0626005151 
C    4   6         -4.4419759695        -1.0423158831        -0.3242852724 
C    5   6         -8.2005712207         3.6252269468         0.0211729412 
O    6   8         -4.5578397845         5.9462037990         0.3558554709 
C    7   6         -0.3163830338        -1.0747528870        -0.1383109211 
C    8   6          0.8842524801         3.2974217416         0.3112685062 
O    9   8         -2.4349872803        -2.5864041743        -0.3763867108 
O   10   8         -6.6202256018        -2.1461215037        -0.5306581535 
C   11   6         -8.8972390175         6.2315741635         0.3021697563 
O   12   8         -9.5521959730         1.7121388622        -0.2294932220 
C   13   6         -6.5498565546         7.6828950099         0.4986121174 
C   14   6          2.1511702508        -1.9258479052        -0.0975406804 
C   15   6          3.3901446057         2.4881331961         0.3515673103 
C   16   6        -11.3954065767         7.2839945146         0.4057870849 
O   17   8         -6.1015481933         9.9044987057         0.7412897561 
C   18   6          4.0171391039        -0.0766065439         0.1533581406 
C   19   6        -13.5550951097         5.6977709789         0.2932513151 
C   20   6        -11.7580137931         9.9292662355         0.6400549791 
C   21   6        -15.9590212083         6.7234593649         0.4170851304 
C   22   6        -14.1781192950        10.9243755881         0.7577982460 
C   23   6        -16.2847989540         9.3357346378         0.6516176620 
H   24   1          0.3951051105         5.2927174945         0.4671807689 
H   25   1         -7.9689147220        -0.8019117498        -0.4474562052 
H   26   1          2.5971501909        -3.9305829134        -0.2526115081 
H   27   1          4.8978265850         3.8824947369         0.5436279118 
H   28   1          5.9989226983        -0.6462954544         0.1955596759 
H   29   1        -13.2883866835         3.6637162177         0.1126440486 
H   30   1        -10.1043138083        11.1525369000         0.7274547827 
H   31   1        -17.6039091480         5.4813468459         0.3346772190 
H   32   1        -14.4317651863        12.9633858236         0.9375371602 
H   33   1        -18.1859411707        10.1319941521         0.7537389825 
[GTO]
  1 0
s   8 1.0 
     6665.0000000000         0.3635842998
     1000.0000000000         0.6749857928
      228.0000000000         1.1316199410
       64.7100000000         1.6530092121
       21.0600000000         1.9238206437
        7.4950000000         1.4472783162
        2.7970000000         0.4391631292
        0.5215000000         0.0066458037
s   8 1.0 
     6665.0000000000        -0.1541797483
     1000.0000000000        -0.2937853735
      228.0000000000        -0.4808958038
       64.7100000000        -0.7614343161
       21.0600000000        -0.9001038923
        7.4950000000        -0.9726113518
        2.7970000000        -0.3940419460
        0.5215000000         0.4783944249
s   1 1.0 
        0.1596000000         0.1799636353
p   3 1.0 
        9.4390000000         1.3437371095
        2.0020000000         1.0631680879
        0.5456000000         0.5082318338
p   1 1.0 
        0.1517000000         0.1349497436
d   1 1.0 
        0.5500000000         1.0013935509

  2 0
s   8 1.0 
     6665.0000000000         0.3635842998
     1000.0000000000         0.6749857928
      228.0000000000         1.1316199410
       64.7100000000         1.6530092121
       21.0600000000         1.9238206437
        7.4950000000         1.4472783162
        2.7970000000         0.4391631292
        0.5215000000         0.0066458037
s   8 1.0 
     6665.0000000000        -0.1541797483
     1000.0000000000        -0.2937853735
      228.0000000000        -0.4808958038
       64.7100000000        -0.7614343161
       21.0600000000        -0.9001038923
        7.4950000000        -0.9726113518
        2.7970000000        -0.3940419460
        0.5215000000         0.4783944249
s   1 1.0 
        0.1596000000         0.1799636353
p   3 1.0 
        9.4390000000         1.3437371095
        2.0020000000         1.0631680879
        0.5456000000         0.5082318338
p   1 1.0 
        0.1517000000         0.1349497436
d   1 1.0 
        0.5500000000         1.0013935509

  3 0
s   8 1.0 
     6665.0000000000         0.3635842998
     1000.0000000000         0.6749857928
      228.0000000000         1.1316199410
       64.7100000000         1.6530092121
       21.0600000000         1.9238206437
        7.4950000000         1.4472783162
        2.7970000000         0.4391631292
        0.5215000000         0.0066458037
s   8 1.0 
     6665.0000000000        -0.1541797483
     1000.0000000000        -0.2937853735
      228.0000000000        -0.4808958038
       64.7100000000        -0.7614343161
       21.0600000000        -0.9001038923
        7.4950000000        -0.9726113518
        2.7970000000        -0.3940419460
        0.5215000000         0.4783944249
s   1 1.0 
        0.1596000000         0.1799636353
p   3 1.0 
        9.4390000000         1.3437371095
        2.0020000000         1.0631680879
        0.5456000000         0.5082318338
p   1 1.0 
        0.1517000000         0.1349497436
d   1 1.0 
        0.5500000000         1.0013935509

  4 0
s   8 1.0 
     6665.0000000000         0.3635842998
     1000.0000000000         0.6749857928
      228.0000000000         1.1316199410
       64.7100000000         1.6530092121
       21.0600000000         1.9238206437
        7.4950000000         1.4472783162
        2.7970000000         0.4391631292
        0.5215000000         0.0066458037
s   8 1.0 
     6665.0000000000        -0.1541797483
     1000.0000000000        -0.2937853735
      228.0000000000        -0.4808958038
       64.7100000000        -0.7614343161
       21.0600000000        -0.9001038923
        7.4950000000        -0.9726113518
        2.7970000000        -0.3940419460
        0.5215000000         0.4783944249
s   1 1.0 
        0.1596000000         0.1799636353
p   3 1.0 
        9.4390000000         1.3437371095
        2.0020000000         1.0631680879
        0.5456000000         0.5082318338
p   1 1.0 
        0.1517000000         0.1349497436
d   1 1.0 
        0.5500000000         1.0013935509

  5 0
s   8 1.0 
     6665.0000000000         0.3635842998
     1000.0000000000         0.6749857928
      228.0000000000         1.1316199410
       64.7100000000         1.6530092121
       21.0600000000         1.9238206437
        7.4950000000         1.4472783162
        2.7970000000         0.4391631292
        0.5215000000         0.0066458037
s   8 1.0 
     6665.0000000000        -0.1541797483
     1000.0000000000        -0.2937853735
      228.0000000000        -0.4808958038
       64.7100000000        -0.7614343161
       21.0600000000        -0.9001038923
        7.4950000000        -0.9726113518
        2.7970000000        -0.3940419460
        0.5215000000         0.4783944249
s   1 1.0 
        0.1596000000         0.1799636353
p   3 1.0 
        9.4390000000         1.3437371095
        2.0020000000         1.0631680879
        0.5456000000         0.5082318338
p   1 1.0 
        0.1517000000         0.1349497436
d   1 1.0 
        0.5500000000         1.0013935509

  6 0
s   8 1.0 
    11720.0000000000         0.5697017158
     1759.0000000000         1.0583521000
      400.8000000000         1.7762810558
      113.7000000000         2.5994118899
       37.0300000000         3.0268459958
       13.2700000000         2.2223943344
        5.0250000000         0.6477954310
        1.0130000000         0.0111186960
s   8 1.0 
    11720.0000000000        -0.2524342625
     1759.0000000000        -0.4804910908
      400.8000000000        -0.7862996613
      113.7000000000        -1.2541699039
       37.0300000000        -1.4912179216
       13.2700000000        -1.6108317779
        5.0250000000        -0.5497983753
        1.0130000000         0.7882822080
s   1 1.0 
        0.3023000000         0.2905619240
p   3 1.0 
       17.7000000000         3.2436193456
        3.8540000000         2.5672796523
        1.0460000000         1.1176693232
p   1 1.0 
        0.2753000000         0.2842482844
d   1 1.0 
        1.1850000000         3.8368709885

  7 0
s   8 1.0 
     6665.0000000000         0.3635842998
     1000.0000000000         0.6749857928
      228.0000000000         1.1316199410
       64.7100000000         1.6530092121
       21.0600000000         1.9238206437
        7.4950000000         1.4472783162
        2.7970000000         0.4391631292
        0.5215000000         0.0066458037
s   8 1.0 
     6665.0000000000        -0.1541797483
     1000.0000000000        -0.2937853735
      228.0000000000        -0.4808958038
       64.7100000000        -0.7614343161
       21.0600000000        -0.9001038923
        7.4950000000        -0.9726113518
        2.7970000000        -0.3940419460
        0.5215000000         0.4783944249
s   1 1.0 
        0.1596000000         0.1799636353
p   3 1.0 
        9.4390000000         1.3437371095
        2.0020000000         1.0631680879
        0.5456000000         0.5082318338
p   1 1.0 
        0.1517000000         0.1349497436
d   1 1.0 
        0.5500000000         1.0013935509

  8 0
s   8 1.0 
     6665.0000000000         0.3635842998
     1000.0000000000         0.6749857928
      228.0000000000         1.1316199410
       64.7100000000         1.6530092121
       21.0600000000         1.9238206437
        7.4950000000         1.4472783162
        2.7970000000         0.4391631292
        0.5215000000         0.0066458037
s   8 1.0 
     6665.0000000000        -0.1541797483
     1000.0000000000        -0.2937853735
      228.0000000000        -0.4808958038
       64.7100000000        -0.7614343161
       21.0600000000        -0.9001038923
        7.4950000000        -0.9726113518
        2.7970000000        -0.3940419460
        0.5215000000         0.4783944249
s   1 1.0 
        0.1596000000         0.1799636353
p   3 1.0 
        9.4390000000         1.3437371095
        2.0020000000         1.0631680879
        0.5456000000         0.5082318338
p   1 1.0 
        0.1517000000         0.1349497436
d   1 1.0 
        0.5500000000         1.0013935509

  9 0
s   8 1.0 
    11720.0000000000         0.5697017158
     1759.0000000000         1.0583521000
      400.8000000000         1.7762810558
      113.7000000000         2.5994118899
       37.0300000000         3.0268459958
       13.2700000000         2.2223943344
        5.0250000000         0.6477954310
        1.0130000000         0.0111186960
s   8 1.0 
    11720.0000000000        -0.2524342625
     1759.0000000000        -0.4804910908
      400.8000000000        -0.7862996613
      113.7000000000        -1.2541699039
       37.0300000000        -1.4912179216
       13.2700000000        -1.6108317779
        5.0250000000        -0.5497983753
        1.0130000000         0.7882822080
s   1 1.0 
        0.3023000000         0.2905619240
p   3 1.0 
       17.7000000000         3.2436193456
        3.8540000000         2.5672796523
        1.0460000000         1.1176693232
p   1 1.0 
        0.2753000000         0.2842482844
d   1 1.0 
        1.1850000000         3.8368709885

 10 0
s   8 1.0 
    11720.0000000000         0.5697017158
     1759.0000000000         1.0583521000
      400.8000000000         1.7762810558
      113.7000000000         2.5994118899
       37.0300000000         3.0268459958
       13.2700000000         2.2223943344
        5.0250000000         0.6477954310
        1.0130000000         0.0111186960
s   8 1.0 
    11720.0000000000        -0.2524342625
     1759.0000000000        -0.4804910908
      400.8000000000        -0.7862996613
      113.7000000000        -1.2541699039
       37.0300000000        -1.4912179216
       13.2700000000        -1.6108317779
        5.0250000000        -0.5497983753
        1.0130000000         0.7882822080
s   1 1.0 
        0.3023000000         0.2905619240
p   3 1.0 
       17.7000000000         3.2436193456
        3.8540000000         2.5672796523
        1.0460000000         1.1176693232
p   1 1.0 
        0.2753000000         0.2842482844
d   1 1.0 
        1.1850000000         3.8368709885

 11 0
s   8 1.0 
     6665.0000000000         0.3635842998
     1000.0000000000         0.6749857928
      228.0000000000         1.1316199410
       64.7100000000         1.6530092121
       21.0600000000         1.9238206437
        7.4950000000         1.4472783162
        2.7970000000         0.4391631292
        0.5215000000         0.0066458037
s   8 1.0 
     6665.0000000000        -0.1541797483
     1000.0000000000        -0.2937853735
      228.0000000000        -0.4808958038
       64.7100000000        -0.7614343161
       21.0600000000        -0.9001038923
        7.4950000000        -0.9726113518
        2.7970000000        -0.3940419460
        0.5215000000         0.4783944249
s   1 1.0 
        0.1596000000         0.1799636353
p   3 1.0 
        9.4390000000         1.3437371095
        2.0020000000         1.0631680879
        0.5456000000         0.5082318338
p   1 1.0 
        0.1517000000         0.1349497436
d   1 1.0 
        0.5500000000         1.0013935509

 12 0
s   8 1.0 
    11720.0000000000         0.5697017158
     1759.0000000000         1.0583521000
      400.8000000000         1.7762810558
      113.7000000000         2.5994118899
       37.0300000000         3.0268459958
       13.2700000000         2.2223943344
        5.0250000000         0.6477954310
        1.0130000000         0.0111186960
s   8 1.0 
    11720.0000000000        -0.2524342625
     1759.0000000000        -0.4804910908
      400.8000000000        -0.7862996613
      113.7000000000        -1.2541699039
       37.0300000000        -1.4912179216
       13.2700000000        -1.6108317779
        5.0250000000        -0.5497983753
        1.0130000000         0.7882822080
s   1 1.0 
        0.3023000000         0.2905619240
p   3 1.0 
       17.7000000000         3.2436193456
        3.8540000000         2.5672796523
        1.0460000000         1.1176693232
p   1 1.0 
        0.2753000000         0.2842482844
d   1 1.0 
        1.1850000000         3.8368709885

 13 0
s   8 1.0 
     6665.0000000000         0.3635842998
     1000.0000000000         0.6749857928
      228.0000000000         1.1316199410
       64.7100000000         1.6530092121
       21.0600000000         1.9238206437
        7.4950000000         1.4472783162
        2.7970000000         0.4391631292
        0.5215000000         0.0066458037
s   8 1.0 
     6665.0000000000        -0.1541797483
     1000.0000000000        -0.2937853735
      228.0000000000        -0.4808958038
       64.7100000000        -0.7614343161
       21.0600000000        -0.9001038923
        7.4950000000        -0.9726113518
        2.7970000000        -0.3940419460
        0.5215000000         0.4783944249
s   1 1.0 
        0.1596000000         0.1799636353
p   3 1.0 
        9.4390000000         1.3437371095
        2.0020000000         1.0631680879
        0.5456000000         0.5082318338
p   1 1.0 
        0.1517000000         0.1349497436
d   1 1.0 
        0.5500000000         1.0013935509

 14 0
s   8 1.0 
     6665.0000000000         0.3635842998
     1000.0000000000         0.6749857928
      228.0000000000         1.1316199410
       64.7100000000         1.6530092121
       21.0600000000         1.9238206437
        7.4950000000         1.4472783162
        2.7970000000         0.4391631292
        0.5215000000         0.0066458037
s   8 1.0 
     6665.0000000000        -0.1541797483
     1000.0000000000        -0.2937853735
      228.0000000000        -0.4808958038
       64.7100000000        -0.7614343161
       21.0600000000        -0.9001038923
        7.4950000000        -0.9726113518
        2.7970000000        -0.3940419460
        0.5215000000         0.4783944249
s   1 1.0 
        0.1596000000         0.1799636353
p   3 1.0 
        9.4390000000         1.3437371095
        2.0020000000         1.0631680879
        0.5456000000         0.5082318338
p   1 1.0 
        0.1517000000         0.1349497436
d   1 1.0 
        0.5500000000         1.0013935509

 15 0
s   8 1.0 
     6665.0000000000         0.3635842998
     1000.0000000000         0.6749857928
      228.0000000000         1.1316199410
       64.7100000000         1.6530092121
       21.0600000000         1.9238206437
        7.4950000000         1.4472783162
        2.7970000000         0.4391631292
        0.5215000000         0.0066458037
s   8 1.0 
     6665.0000000000        -0.1541797483
     1000.0000000000        -0.2937853735
      228.0000000000        -0.4808958038
       64.7100000000        -0.7614343161
       21.0600000000        -0.9001038923
        7.4950000000        -0.9726113518
        2.7970000000        -0.3940419460
        0.5215000000         0.4783944249
s   1 1.0 
        0.1596000000         0.1799636353
p   3 1.0 
        9.4390000000         1.3437371095
        2.0020000000         1.0631680879
        0.5456000000         0.5082318338
p   1 1.0 
        0.1517000000         0.1349497436
d   1 1.0 
        0.5500000000         1.0013935509

 16 0
s   8 1.0 
     6665.0000000000         0.3635842998
     1000.0000000000         0.6749857928
      228.0000000000         1.1316199410
       64.7100000000         1.6530092121
       21.0600000000         1.9238206437
        7.4950000000         1.4472783162
        2.7970000000         0.4391631292
        0.5215000000         0.0066458037
s   8 1.0 
     6665.0000000000        -0.1541797483
     1000.0000000000        -0.2937853735
      228.0000000000        -0.4808958038
       64.7100000000        -0.7614343161
       21.0600000000        -0.9001038923
        7.4950000000        -0.9726113518
        2.7970000000        -0.3940419460
        0.5215000000         0.4783944249
s   1 1.0 
        0.1596000000         0.1799636353
p   3 1.0 
        9.4390000000         1.3437371095
        2.0020000000         1.0631680879
        0.5456000000         0.5082318338
p   1 1.0 
        0.1517000000         0.1349497436
d   1 1.0 
        0.5500000000         1.0013935509

 17 0
s   8 1.0 
    11720.0000000000         0.5697017158
     1759.0000000000         1.0583521000
      400.8000000000         1.7762810558
      113.7000000000         2.5994118899
       37.0300000000         3.0268459958
       13.2700000000         2.2223943344
        5.0250000000         0.6477954310
        1.0130000000         0.0111186960
s   8 1.0 
    11720.0000000000        -0.2524342625
     1759.0000000000        -0.4804910908
      400.8000000000        -0.7862996613
      113.7000000000        -1.2541699039
       37.0300000000        -1.4912179216
       13.2700000000        -1.6108317779
        5.0250000000        -0.5497983753
        1.0130000000         0.7882822080
s   1 1.0 
        0.3023000000         0.2905619240
p   3 1.0 
       17.7000000000         3.2436193456
        3.8540000000         2.5672796523
        1.0460000000         1.1176693232
p   1 1.0 
        0.2753000000         0.2842482844
d   1 1.0 
        1.1850000000         3.8368709885

 18 0
s   8 1.0 
     6665.0000000000         0.3635842998
     1000.0000000000         0.6749857928
      228.0000000000         1.1316199410
       64.7100000000         1.6530092121
       21.0600000000         1.9238206437
        7.4950000000         1.4472783162
        2.7970000000         0.4391631292
        0.5215000000         0.0066458037
s   8 1.0 
     6665.0000000000        -0.1541797483
     1000.0000000000        -0.2937853735
      228.0000000000        -0.4808958038
       64.7100000000        -0.7614343161
       21.0600000000        -0.9001038923
        7.4950000000        -0.9726113518
        2.7970000000        -0.3940419460
        0.5215000000         0.4783944249
s   1 1.0 
        0.1596000000         0.1799636353
p   3 1.0 
        9.4390000000         1.3437371095
        2.0020000000         1.0631680879
        0.5456000000         0.5082318338
p   1 1.0 
        0.1517000000         0.1349497436
d   1 1.0 
        0.5500000000         1.0013935509

 19 0
s   8 1.0 
     6665.0000000000         0.3635842998
     1000.0000000000         0.6749857928
      228.0000000000         1.1316199410
       64.7100000000         1.6530092121
       21.0600000000         1.9238206437
        7.4950000000         1.4472783162
        2.7970000000         0.4391631292
        0.5215000000         0.0066458037
s   8 1.0 
     6665.0000000000        -0.1541797483
     1000.0000000000        -0.2937853735
      228.0000000000        -0.4808958038
       64.7100000000        -0.7614343161
       21.0600000000        -0.9001038923
        7.4950000000        -0.9726113518
        2.7970000000        -0.3940419460
        0.5215000000         0.4783944249
s   1 1.0 
        0.1596000000         0.1799636353
p   3 1.0 
        9.4390000000         1.3437371095
        2.0020000000         1.0631680879
        0.5456000000         0.5082318338
p   1 1.0 
        0.1517000000         0.1349497436
d   1 1.0 
        0.5500000000         1.0013935509

 20 0
s   8 1.0 
     6665.0000000000         0.3635842998
     1000.0000000000         0.6749857928
      228.0000000000         1.1316199410
       64.7100000000         1.6530092121
       21.0600000000         1.9238206437
        7.4950000000         1.4472783162
        2.7970000000         0.4391631292
        0.5215000000         0.0066458037
s   8 1.0 
     6665.0000000000        -0.1541797483
     1000.0000000000        -0.2937853735
      228.0000000000        -0.4808958038
       64.7100000000        -0.7614343161
       21.0600000000        -0.9001038923
        7.4950000000        -0.9726113518
        2.7970000000        -0.3940419460
        0.5215000000         0.4783944249
s   1 1.0 
        0.1596000000         0.1799636353
p   3 1.0 
        9.4390000000         1.3437371095
        2.0020000000         1.0631680879
        0.5456000000         0.5082318338
p   1 1.0 
        0.1517000000         0.1349497436
d   1 1.0 
        0.5500000000         1.0013935509

 21 0
s   8 1.0 
     6665.0000000000         0.3635842998
     1000.0000000000         0.6749857928
      228.0000000000         1.1316199410
       64.7100000000         1.6530092121
       21.0600000000         1.9238206437
        7.4950000000         1.4472783162
        2.7970000000         0.4391631292
        0.5215000000         0.0066458037
s   8 1.0 
     6665.0000000000        -0.1541797483
     1000.0000000000        -0.2937853735
      228.0000000000        -0.4808958038
       64.7100000000        -0.7614343161
       21.0600000000        -0.9001038923
        7.4950000000        -0.9726113518
        2.7970000000        -0.3940419460
        0.5215000000         0.4783944249
s   1 1.0 
        0.1596000000         0.1799636353
p   3 1.0 
        9.4390000000         1.3437371095
        2.0020000000         1.0631680879
        0.5456000000         0.5082318338
p   1 1.0 
        0.1517000000         0.1349497436
d   1 1.0 
        0.5500000000         1.0013935509

 22 0
s   8 1.0 
     6665.0000000000         0.3635842998
     1000.0000000000         0.6749857928
      228.0000000000         1.1316199410
       64.7100000000         1.6530092121
       21.0600000000         1.9238206437
        7.4950000000         1.4472783162
        2.7970000000         0.4391631292
        0.5215000000         0.0066458037
s   8 1.0 
     6665.0000000000        -0.1541797483
     1000.0000000000        -0.2937853735
      228.0000000000        -0.4808958038
       64.7100000000        -0.7614343161
       21.0600000000        -0.9001038923
        7.4950000000        -0.9726113518
        2.7970000000        -0.3940419460
        0.5215000000         0.4783944249
s   1 1.0 
        0.1596000000         0.1799636353
p   3 1.0 
        9.4390000000         1.3437371095
        2.0020000000         1.0631680879
        0.5456000000         0.5082318338
p   1 1.0 
        0.1517000000         0.1349497436
d   1 1.0 
        0.5500000000         1.0013935509

 23 0
s   8 1.0 
     6665.0000000000         0.3635842998
     1000.0000000000         0.6749857928
      228.0000000000         1.1316199410
       64.7100000000         1.6530092121
       21.0600000000         1.9238206437
        7.4950000000         1.4472783162
        2.7970000000         0.4391631292
        0.5215000000         0.0066458037
s   8 1.0 
     6665.0000000000        -0.1541797483
     1000.0000000000        -0.2937853735
      228.0000000000        -0.4808958038
       64.7100000000        -0.7614343161
       21.0600000000        -0.9001038923
        7.4950000000        -0.9726113518
        2.7970000000        -0.3940419460
        0.5215000000         0.4783944249
s   1 1.0 
        0.1596000000         0.1799636353
p   3 1.0 
        9.4390000000         1.3437371095
        2.0020000000         1.0631680879
        0.5456000000         0.5082318338
p   1 1.0 
        0.1517000000         0.1349497436
d   1 1.0 
        0.5500000000         1.0013935509

 24 0
s   3 1.0 
       13.0100000000         0.1635484228
        1.9620000000         0.2774175417
        0.4446000000         0.3157493070
s   1 1.0 
        0.1220000000         0.1471227944
p   1 1.0 
        0.7270000000         0.9568813751

 25 0
s   3 1.0 
       13.0100000000         0.1635484228
        1.9620000000         0.2774175417
        0.4446000000         0.3157493070
s   1 1.0 
        0.1220000000         0.1471227944
p   1 1.0 
        0.7270000000         0.9568813751

 26 0
s   3 1.0 
       13.0100000000         0.1635484228
        1.9620000000         0.2774175417
        0.4446000000         0.3157493070
s   1 1.0 
        0.1220000000         0.1471227944
p   1 1.0 
        0.7270000000         0.9568813751

 27 0
s   3 1.0 
       13.0100000000         0.1635484228
        1.9620000000         0.2774175417
        0.4446000000         0.3157493070
s   1 1.0 
        0.1220000000         0.1471227944
p   1 1.0 
        0.7270000000         0.9568813751

 28 0
s   3 1.0 
       13.0100000000         0.1635484228
        1.9620000000         0.2774175417
        0.4446000000         0.3157493070
s   1 1.0 
        0.1220000000         0.1471227944
p   1 1.0 
        0.7270000000         0.9568813751

 29 0
s   3 1.0 
       13.0100000000         0.1635484228
        1.9620000000         0.2774175417
        0.4446000000         0.3157493070
s   1 1.0 
        0.1220000000         0.1471227944
p   1 1.0 
        0.7270000000         0.9568813751

 30 0
s   3 1.0 
       13.0100000000         0.1635484228
        1.9620000000         0.2774175417
        0.4446000000         0.3157493070
s   1 1.0 
        0.1220000000         0.1471227944
p   1 1.0 
        0.7270000000         0.9568813751

 31 0
s   3 1.0 
       13.0100000000         0.1635484228
        1.9620000000         0.2774175417
        0.4446000000         0.3157493070
s   1 1.0 
        0.1220000000         0.1471227944
p   1 1.0 
        0.7270000000         0.9568813751

 32 0
s   3 1.0 
       13.0100000000         0.1635484228
        1.9620000000         0.2774175417
        0.4446000000         0.3157493070
s   1 1.0 
        0.1220000000         0.1471227944
p   1 1.0 
        0.7270000000         0.9568813751

 33 0
s   3 1.0 
       13.0100000000         0.1635484228
        1.9620000000         0.2774175417
        0.4446000000         0.3157493070
s   1 1.0 
        0.1220000000         0.1471227944
p   1 1.0 
        0.7270000000         0.9568813751

[5D]
[7F]
[9G]
[MO]
 Sym=     1a
 Ene= -1.93789697475122E+01
 Spin= Alpha
 Occup= 2.000000
  1       0.000134115170
  2       0.000263983947
  3      -0.004156303945
  4      -0.000044360186
  5      -0.000126349848
  6      -0.000016754535
  7       0.004618050075
  8      -0.008338832592
  9      -0.000581938099
 10       0.000067698352
 11      -0.000001671687
 12       0.000014405257
 13      -0.000234760198
 14       0.000141633911
 15      -0.000146120831
 16      -0.000225157749
 17       0.007710400338
 18       0.000010375602
 19      -0.000082835618
 20      -0.000005015044
 21       0.004849094974
 22      -0.003974860023
 23      -0.000236846415
 24      -0.000103787495
 25      -0.000002538485
 26       0.000029322867
 27      -0.000150653630
 28      -0.000065662659
 29       0.000114163168
 30       0.000229240393
 31      -0.002599311442
 32       0.000051506735
 33      -0.000175242320
 34      -0.000013232516
 35      -0.002887573296
 36      -0.000896655122
 37      -0.000215147973
 38       0.000047923075
 39      -0.000021585784
 40       0.000020517573
 41      -0.000317599234
 42      -0.000037179925
 43      -0.000281220180
 44      -0.000518996207
 45      -0.007264782258
 46      -0.000511733132
 47       0.000175329881
 48      -0.000007199803
 49      -0.004887587329
 50      -0.000105907406
 51      -0.000233207518
 52       0.000192145018
 53      -0.000072365375
 54      -0.000049548361
 55      -0.000088332529
 56      -0.000561455108
 57      -0.000122832155
 58      -0.000204378847
 59       0.003653406291
 60       0.000037504523
 61      -0.000033416276
 62      -0.000002043532
 63      -0.000003642363
 64       0.001894398941
 65       0.000200369458
 66      -0.000064949422
 67      -0.000000587988
 68       0.000017012957
 69      -0.000037456348
 70       0.000005081411
 71       0.000069902615
 72       0.000072921770
 73      -0.000408854727
 74       0.000023103686