panoramix.ccc.uam.es
/temporal/fmatar/slurm_tmp_6272783

                                 *****************
                                 * O   R   C   A *
                                 *****************

                                            #,                                       
                                            ###                                      
                                            ####                                     
                                            #####                                    
                                            ######                                   
                                           ########,                                 
                                     ,,################,,,,,                         
                               ,,#################################,,                 
                          ,,##########################################,,             
                       ,#########################################, ''#####,          
                    ,#############################################,,   '####,        
                  ,##################################################,,,,####,       
                ,###########''''           ''''###############################       
              ,#####''   ,,,,##########,,,,          '''####'''          '####       
            ,##' ,,,,###########################,,,                        '##       
           ' ,,###''''                  '''############,,,                           
         ,,##''                                '''############,,,,        ,,,,,,###''
      ,#''                                            '''#######################'''  
     '                                                          ''''####''''         
             ,#######,   #######,   ,#######,      ##                                
            ,#'     '#,  ##    ##  ,#'     '#,    #''#        ######   ,####,        
            ##       ##  ##   ,#'  ##            #'  '#       #        #'  '#        
            ##       ##  #######   ##           ,######,      #####,   #    #        
            '#,     ,#'  ##    ##  '#,     ,#' ,#      #,         ##   #,  ,#        
             '#######'   ##     ##  '#######'  #'      '#     #####' # '####'        



                  #######################################################
                  #                        -***-                        #
                  #          Department of theory and spectroscopy      #
                  #    Directorship and core code : Frank Neese         #
                  #        Max Planck Institute fuer Kohlenforschung    #
                  #                Kaiser Wilhelm Platz 1               #
                  #                 D-45470 Muelheim/Ruhr               #
                  #                      Germany                        #
                  #                                                     #
                  #                  All rights reserved                #
                  #                        -***-                        #
                  #######################################################


                         Program Version 5.0.3 -  RELEASE  -


 With contributions from (in alphabetic order):
   Daniel Aravena         : Magnetic Suceptibility
   Michael Atanasov       : Ab Initio Ligand Field Theory (pilot matlab implementation)
   Alexander A. Auer      : GIAO ZORA, VPT2 properties, NMR spectrum
   Ute Becker             : Parallelization
   Giovanni Bistoni       : ED, misc. LED, open-shell LED, HFLD
   Martin Brehm           : Molecular dynamics
   Dmytro Bykov           : SCF Hessian
   Vijay G. Chilkuri      : MRCI spin determinant printing, contributions to CSF-ICE
   Dipayan Datta          : RHF DLPNO-CCSD density
   Achintya Kumar Dutta   : EOM-CC, STEOM-CC
   Dmitry Ganyushin       : Spin-Orbit,Spin-Spin,Magnetic field MRCI
   Miquel Garcia          : C-PCM and meta-GGA Hessian, CC/C-PCM, Gaussian charge scheme
   Yang Guo               : DLPNO-NEVPT2, F12-NEVPT2, CIM, IAO-localization
   Andreas Hansen         : Spin unrestricted coupled pair/coupled cluster methods
   Benjamin Helmich-Paris : MC-RPA, TRAH-SCF, COSX integrals
   Lee Huntington         : MR-EOM, pCC
   Robert Izsak           : Overlap fitted RIJCOSX, COSX-SCS-MP3, EOM
   Marcus Kettner         : VPT2
   Christian Kollmar      : KDIIS, OOCD, Brueckner-CCSD(T), CCSD density, CASPT2, CASPT2-K
   Simone Kossmann        : Meta GGA functionals, TD-DFT gradient, OOMP2, MP2 Hessian
   Martin Krupicka        : Initial AUTO-CI
   Lucas Lang             : DCDCAS
   Marvin Lechner         : AUTO-CI (C++ implementation), FIC-MRCC
   Dagmar Lenk            : GEPOL surface, SMD
   Dimitrios Liakos       : Extrapolation schemes; Compound Job, initial MDCI parallelization
   Dimitrios Manganas     : Further ROCIS development; embedding schemes
   Dimitrios Pantazis     : SARC Basis sets
   Anastasios Papadopoulos: AUTO-CI, single reference methods and gradients
   Taras Petrenko         : DFT Hessian,TD-DFT gradient, ASA, ECA, R-Raman, ABS, FL, XAS/XES, NRVS
   Peter Pinski           : DLPNO-MP2, DLPNO-MP2 Gradient
   Christoph Reimann      : Effective Core Potentials
   Marius Retegan         : Local ZFS, SOC
   Christoph Riplinger    : Optimizer, TS searches, QM/MM, DLPNO-CCSD(T), (RO)-DLPNO pert. Triples
   Tobias Risthaus        : Range-separated hybrids, TD-DFT gradient, RPA, STAB
   Michael Roemelt        : Original ROCIS implementation
   Masaaki Saitow         : Open-shell DLPNO-CCSD energy and density
   Barbara Sandhoefer     : DKH picture change effects
   Avijit Sen             : IP-ROCIS
   Kantharuban Sivalingam : CASSCF convergence, NEVPT2, FIC-MRCI
   Bernardo de Souza      : ESD, SOC TD-DFT
   Georgi Stoychev        : AutoAux, RI-MP2 NMR, DLPNO-MP2 response
   Willem Van den Heuvel  : Paramagnetic NMR
   Boris Wezisla          : Elementary symmetry handling
   Frank Wennmohs         : Technical directorship


 We gratefully acknowledge several colleagues who have allowed us to
 interface, adapt or use parts of their codes:
   Stefan Grimme, W. Hujo, H. Kruse, P. Pracht,  : VdW corrections, initial TS optimization,
                  C. Bannwarth, S. Ehlert          DFT functionals, gCP, sTDA/sTD-DF
   Ed Valeev, F. Pavosevic, A. Kumar             : LibInt (2-el integral package), F12 methods
   Garnet Chan, S. Sharma, J. Yang, R. Olivares  : DMRG
   Ulf Ekstrom                                   : XCFun DFT Library
   Mihaly Kallay                                 : mrcc  (arbitrary order and MRCC methods)
   Jiri Pittner, Ondrej Demel                    : Mk-CCSD
   Frank Weinhold                                : gennbo (NPA and NBO analysis)
   Christopher J. Cramer and Donald G. Truhlar   : smd solvation model
   Lars Goerigk                                  : TD-DFT with DH, B97 family of functionals
   V. Asgeirsson, H. Jonsson                     : NEB implementation
   FAccTs GmbH                                   : IRC, NEB, NEB-TS, DLPNO-Multilevel, CI-OPT
                                                   MM, QMMM, 2- and 3-layer-ONIOM, Crystal-QMMM,
                                                   LR-CPCM, SF, NACMEs, symmetry and pop. for TD-DFT,
                                                   nearIR, NL-DFT gradient (VV10), updates on ESD,
                                                   ML-optimized integration grids
   S Lehtola, MJT Oliveira, MAL Marques          : LibXC Library
   Liviu Ungur et al                             : ANISO software


 Your calculation uses the libint2 library for the computation of 2-el integrals
 For citations please refer to: http://libint.valeyev.net

 Your ORCA version has been built with support for libXC version: 5.1.0
 For citations please refer to: https://tddft.org/programs/libxc/

 This ORCA versions uses:
   CBLAS   interface :  Fast vector & matrix operations
   LAPACKE interface :  Fast linear algebra routines
   SCALAPACK package :  Parallel linear algebra routines
   Shared memory     :  Shared parallel matrices
   BLAS/LAPACK       :  OpenBLAS 0.3.15  USE64BITINT DYNAMIC_ARCH NO_AFFINITY Sandybridge SINGLE_THREADED
        Core in use  :  Sandybridge
   Copyright (c) 2011-2014, The OpenBLAS Project


Your calculation utilizes the atom-pairwise dispersion correction
with the zero-damping scheme (D30)
Cite in your paper:
S.Grimme, J.Antony, S.Ehrlich and H.Krieg, J.Chem.Phys., 132, (2010), 154104 
   

XCFun DFT library Copyright 2009-2010 Ulf Ekstrom and contributors.
See http://admol.org/xcfun for more information.
This is free software; see the source code for copying conditions.
There is ABSOLUTELY NO WARRANTY; not even for MERCHANTABILITY or FITNESS FOR A PARTICULAR PURPOSE.
For details see the documentation.
Scientific users of this library should cite U. Ekstrom, L. Visscher, R. Bast, A. J. Thorvaldsen and K. Ruud;
J.Chem.Theor.Comp. 2010, DOI: 10.1021/ct100117s
XCFun Version 0.99 

================================================================================

----- Orbital basis set information -----
Your calculation utilizes the basis: cc-pVDZ 
       H, B-Ne : Obtained from the ccRepo (grant-hill.group.shef.ac.uk/ccrepo) Feb. 2017
                 T. H. Dunning, Jr., J. Chem. Phys. 90, 1007 (1989)
            He : Obtained from the ccRepo (grant-hill.group.shef.ac.uk/ccrepo) Feb. 2017
                 D. E. Woon, T. H. Dunning, Jr., J. Chem. Phys. 100, 2975 (1994)
  Li-Be, Na-Mg : Obtained from the ccRepo (grant-hill.group.shef.ac.uk/ccrepo) Feb. 2017
                 B. P. Prascher, D. E. Woon, K. A. Peterson, T. H. Dunning, Jr., A. K. Wilson, Theor. Chem. Acc. 128, 69 (2011)
         Al-Ar : Obtained from the ccRepo (grant-hill.group.shef.ac.uk/ccrepo) Feb. 2017
                 D. E. Woon, T. H. Dunning, Jr., J. Chem. Phys. 98, 1358 (1993)
            Ca : Obtained from the Peterson Research Group Website (tyr0.chem.wsu.edu/~kipeters) Feb. 2017
                 J. Koput, K. A. Peterson, J. Phys. Chem. 106, 9595 (2002)
         Sc-Zn : Obtained from the ccRepo (grant-hill.group.shef.ac.uk/ccrepo) Feb. 2017
                 N. B. Balabanov, K. A. Peterson, J. Chem. Phys. 123, 064107 (2005)
                 N. B. Balabanov, K. A. Peterson, J. Chem. Phys. 125, 074110 (2006)
         Ga-Kr : Obtained from the ccRepo (grant-hill.group.shef.ac.uk/ccrepo) Feb. 2017
                 A. K. Wilson, D. E. Woon, K. A. Peterson, T. H. Dunning, Jr., J. Chem. Phys. 110, 7667 (1999)

----- AuxJ basis set information -----
Your calculation utilizes the auxiliary basis: def2/J
   F. Weigend, Phys. Chem. Chem. Phys. 8, 1057 (2006).

================================================================================
                                        WARNINGS
                       Please study these warnings very carefully!
================================================================================

INFO   : Checking CIS options ...

WARNING: Geometry Optimization
  ===> : Switching off AutoStart
         For restart on a previous wavefunction, please use MOREAD

WARNING: CIS/ROCIS methods need fully converged wavefunctions
  ===> : Setting SCFConvForced true
         You can overwrite this default with %scf ConvForced false 


INFO   : the flag for use of the SHARK integral package has been found!

================================================================================
                                       INPUT FILE
================================================================================
NAME = calcyn_opt_iroot_8_recook.in
|  1> ! wB97x-D3 cc-pvdz opt 
|  2> 
|  3> %tddft
|  4>  nroots 10
|  5>  tda TRUE
|  6>  IRoot 8
|  7> end
|  8> 
|  9> *xyz 0 1 
| 10>   C      -1.974585      0.820146     -0.022507
| 11>   C      -2.820894      1.881367      0.131843
| 12>   C      -0.523838      0.780628      0.054413
| 13>   C      -2.388975     -0.552551     -0.328697
| 14>   C      -4.287030      1.949446      0.063543
| 15>   O      -2.344183      3.107758      0.400468
| 16>   C      -0.171149     -0.548869     -0.199393
| 17>   C       0.475175      1.722173      0.303634
| 18>   O      -1.285427     -1.338528     -0.425121
| 19>   O      -3.503088     -1.031224     -0.492990
| 20>   C      -4.654943      3.256835      0.308379
| 21>   O      -5.078954      0.940413     -0.189825
| 22>   C      -3.433417      4.018760      0.518518
| 23>   C       1.133062     -0.999270     -0.219968
| 24>   C       1.801955      1.290653      0.287214
| 25>   C      -6.008442      3.812507      0.296101
| 26>   O      -3.209621      5.179459      0.738127
| 27>   C       2.125625     -0.045423      0.030698
| 28>   C      -7.131729      2.967460      0.490481
| 29>   C      -6.198380      5.205832      0.087892
| 30>   C      -8.444239      3.517576      0.448499
| 31>   C      -7.517079      5.745204      0.035680
| 32>   C      -8.628750      4.898241      0.212968
| 33>   H       0.216048      2.761793      0.503535
| 34>   H      -4.541483      0.094654     -0.333552
| 35>   H       1.367574     -2.044047     -0.422327
| 36>   H       2.601434      2.008718      0.477343
| 37>   H       3.172688     -0.354009      0.025474
| 38>   H      -6.990276      1.905199      0.675682
| 39>   H      -5.328968      5.852530     -0.019161
| 40>   H      -9.307201      2.867193      0.594282
| 41>   H      -7.658534      6.810898     -0.143450
| 42>   H      -9.639149      5.308086      0.169597
| 43> *
| 44> 
| 45>                          ****END OF INPUT****
================================================================================

                       *****************************
                       * Geometry Optimization Run *
                       *****************************

Geometry optimization settings:
Update method            Update   .... BFGS
Choice of coordinates    CoordSys .... Z-matrix Internals
Initial Hessian          InHess   .... Almoef's Model

Convergence Tolerances:
Energy Change            TolE     ....  5.0000e-06 Eh
Max. Gradient            TolMAXG  ....  3.0000e-04 Eh/bohr
RMS Gradient             TolRMSG  ....  1.0000e-04 Eh/bohr
Max. Displacement        TolMAXD  ....  4.0000e-03 bohr
RMS Displacement         TolRMSD  ....  2.0000e-03 bohr
Strict Convergence                ....  False
------------------------------------------------------------------------------
                        ORCA OPTIMIZATION COORDINATE SETUP
------------------------------------------------------------------------------

The optimization will be done in new redundant internal coordinates
Making redundant internal coordinates   ...  (new redundants) done
Evaluating the initial hessian          ...  (Almloef) done
Evaluating the coordinates              ...  done
Calculating the B-matrix                .... done
Calculating the G-matrix                .... done
Diagonalizing the G-matrix              .... done
Small eigenvalue found = 3.105e-03
Small eigenvalue found = 1.298e-02
Small eigenvalue found = 1.714e-02
The first mode is                       ....   86
The number of degrees of freedom        ....   93

    -----------------------------------------------------------------
                    Redundant Internal Coordinates


    -----------------------------------------------------------------
         Definition                    Initial Value    Approx d2E/dq
    -----------------------------------------------------------------
      1. B(C   1,C   0)                  1.3661         0.682112   
      2. B(C   2,C   0)                  1.4533         0.495122   
      3. B(C   3,C   0)                  1.4662         0.472228   
      4. B(C   4,C   1)                  1.4693         0.466889   
      5. B(O   5,C   1)                  1.3429         0.665243   
      6. B(C   6,C   2)                  1.3987         0.605137   
      7. B(C   7,C   2)                  1.3952         0.612924   
      8. B(O   8,C   6)                  1.3842         0.571557   
      9. B(O   8,C   3)                  1.3583         0.628798   
     10. B(O   9,C   3)                  1.2237         1.030967   
     11. B(C  10,C   4)                  1.3801         0.648029   
     12. B(O  11,C   4)                  1.3075         0.757777   
     13. B(C  12,C  10)                  1.4549         0.492211   
     14. B(C  12,O   5)                  1.4249         0.492291   
     15. B(C  13,C   6)                  1.3799         0.648305   
     16. B(C  14,C   7)                  1.3953         0.612780   
     17. B(C  15,C  10)                  1.4632         0.477521   
     18. B(O  16,C  12)                  1.2023         1.115148   
     19. B(C  17,C  14)                  1.3984         0.605700   
     20. B(C  17,C  13)                  1.3992         0.603971   
     21. B(C  18,C  15)                  1.4190         0.561583   
     22. B(C  19,C  15)                  1.4215         0.556436   
     23. B(C  20,C  18)                  1.4238         0.551935   
     24. B(C  21,C  19)                  1.4257         0.548005   
     25. B(C  22,C  21)                  1.4088         0.583199   
     26. B(C  22,C  20)                  1.4127         0.574782   
     27. B(H  23,C   7)                  1.0899         0.360211   
     28. B(H  24,O  11)                  1.0123         0.428998   
     29. B(H  25,C  13)                  1.0897         0.360462   
     30. B(H  26,C  14)                  1.0913         0.358386   
     31. B(H  27,C  17)                  1.0916         0.357988   
     32. B(H  28,C  18)                  1.0875         0.363391   
     33. B(H  29,C  19)                  1.0888         0.361648   
     34. B(H  30,C  20)                  1.0904         0.359582   
     35. B(H  31,C  21)                  1.0899         0.360282   
     36. B(H  32,C  22)                  1.0912         0.358490   
     37. A(C   2,C   0,C   3)          105.5287         0.397341   
     38. A(C   1,C   0,C   3)          125.1545         0.420532   
     39. A(C   1,C   0,C   2)          129.3124         0.424103   
     40. A(C   4,C   1,O   5)          108.7355         0.415105   
     41. A(C   0,C   1,C   4)          130.4594         0.419680   
     42. A(C   0,C   1,O   5)          120.8038         0.444322   
     43. A(C   0,C   2,C   6)          105.5423         0.415143   
     44. A(C   0,C   2,C   7)          134.8991         0.416089   
     45. A(C   6,C   2,C   7)          119.5583         0.431286   
     46. A(C   0,C   3,O   9)          130.6616         0.450026   
     47. A(C   0,C   3,O   8)          109.0842         0.411803   
     48. A(O   8,C   3,O   9)          120.2542         0.471030   
     49. A(C   1,C   4,O  11)          125.2843         0.424861   
     50. A(C   1,C   4,C  10)          107.5576         0.415865   
     51. A(C  10,C   4,O  11)          127.1577         0.450731   
     52. A(C   1,O   5,C  12)          109.2132         0.416323   
     53. A(O   8,C   6,C  13)          124.9016         0.428395   
     54. A(C   2,C   6,O   8)          111.6447         0.423143   
     55. A(C   2,C   6,C  13)          123.4536         0.435661   
     56. A(C   2,C   7,C  14)          118.0382         0.432259   
     57. A(C   2,C   7,H  23)          120.4124         0.352243   
     58. A(C  14,C   7,H  23)          121.5494         0.352229   
     59. A(C   3,O   8,C   6)          108.2000         0.423282   
     60. A(C  12,C  10,C  15)          125.3786         0.397708   
     61. A(C   4,C  10,C  15)          127.2211         0.417535   
     62. A(C   4,C  10,C  12)          107.3320         0.419796   
     63. A(C   4,O  11,H  24)          110.5295         0.370650   
     64. A(C  10,C  12,O  16)          133.4897         0.459961   
     65. A(O   5,C  12,O  16)          119.3451         0.456922   
     66. A(O   5,C  12,C  10)          107.1587         0.397286   
     67. A(C   6,C  13,C  17)          116.4402         0.435510   
     68. A(C  17,C  13,H  25)          122.2887         0.351409   
     69. A(C   6,C  13,H  25)          121.2711         0.355650   
     70. A(C   7,C  14,C  17)          121.1794         0.431339   
     71. A(C  17,C  14,H  26)          119.4091         0.351235   
     72. A(C   7,C  14,H  26)          119.4114         0.351926   
     73. A(C  10,C  15,C  18)          120.3276         0.407059   
     74. A(C  18,C  15,C  19)          119.8667         0.418262   
     75. A(C  10,C  15,C  19)          119.8057         0.406397   
     76. A(C  13,C  17,C  14)          121.3302         0.430219   
     77. A(C  14,C  17,H  27)          119.5357         0.351169   
     78. A(C  13,C  17,H  27)          119.1341         0.351000   
     79. A(C  20,C  18,H  28)          120.1547         0.346583   
     80. A(C  15,C  18,H  28)          120.1352         0.347596   
     81. A(C  15,C  18,C  20)          119.7094         0.417658   
     82. A(C  21,C  19,H  29)          120.6808         0.345887   
     83. A(C  15,C  19,H  29)          119.3314         0.346776   
     84. A(C  15,C  19,C  21)          119.9843         0.416443   
     85. A(C  22,C  20,H  30)          120.1232         0.348340   
     86. A(C  18,C  20,H  30)          119.6816         0.345970   
     87. A(C  18,C  20,C  22)          120.1946         0.419390   
     88. A(C  22,C  21,H  31)          120.4074         0.349309   
     89. A(C  19,C  21,H  31)          119.7358         0.345667   
     90. A(C  19,C  21,C  22)          119.8567         0.419944   
     91. A(C  21,C  22,H  32)          119.9909         0.349015   
     92. A(C  20,C  22,H  32)          119.6450         0.348161   
     93. A(C  20,C  22,C  21)          120.3641         0.423536   
     94. D(O   5,C   1,C   0,C   3)   -179.3953         0.032631   
     95. D(O   5,C   1,C   0,C   2)     -0.2686         0.032631   
     96. D(C   4,C   1,C   0,C   3)      1.0761         0.032631   
     97. D(C   4,C   1,C   0,C   2)   -179.7972         0.032631   
     98. D(C   7,C   2,C   0,C   1)      0.5883         0.016695   
     99. D(C   6,C   2,C   0,C   1)   -179.1986         0.016695   
    100. D(C   7,C   2,C   0,C   3)    179.8473         0.016695   
    101. D(C   6,C   2,C   0,C   3)      0.0603         0.016695   
    102. D(O   9,C   3,C   0,C   2)   -179.9585         0.015184   
    103. D(O   8,C   3,C   0,C   1)    179.3119         0.015184   
    104. D(O   8,C   3,C   0,C   2)      0.0132         0.015184   
    105. D(O   9,C   3,C   0,C   1)     -0.6598         0.015184   
    106. D(C  10,C   4,C   1,O   5)     -0.3119         0.014845   
    107. D(O  11,C   4,C   1,C   0)     -0.9571         0.014845   
    108. D(C  10,C   4,C   1,C   0)    179.2605         0.014845   
    109. D(O  11,C   4,C   1,O   5)    179.4705         0.014845   
    110. D(C  12,O   5,C   1,C   0)   -179.6641         0.032834   
    111. D(C  12,O   5,C   1,C   4)     -0.0428         0.032834   
    112. D(C  13,C   6,C   2,C   7)     -0.0246         0.025268   
    113. D(O   8,C   6,C   2,C   7)   -179.9420         0.025268   
    114. D(O   8,C   6,C   2,C   0)     -0.1155         0.025268   
    115. D(C  13,C   6,C   2,C   0)    179.8020         0.025268   
    116. D(H  23,C   7,C   2,C   6)   -179.9698         0.025960   
    117. D(H  23,C   7,C   2,C   0)      0.2662         0.025960   
    118. D(C  14,C   7,C   2,C   6)      0.0677         0.025960   
    119. D(C  14,C   7,C   2,C   0)   -179.6963         0.025960   
    120. D(C   3,O   8,C   6,C  13)   -179.7890         0.023720   
    121. D(C   3,O   8,C   6,C   2)      0.1271         0.023720   
    122. D(C   6,O   8,C   3,O   9)    179.8921         0.029069   
    123. D(C   6,O   8,C   3,C   0)     -0.0830         0.029069   
    124. D(C  12,C  10,C   4,C   1)      0.5239         0.029227   
    125. D(C  15,C  10,C   4,O  11)     -2.1493         0.029227   
    126. D(C  15,C  10,C   4,C   1)    177.6278         0.029227   
    127. D(C  12,C  10,C   4,O  11)   -179.2532         0.029227   
    128. D(H  24,O  11,C   4,C  10)    179.8068         0.043710   
    129. D(H  24,O  11,C   4,C   1)      0.0672         0.043710   
    130. D(O  16,C  12,C  10,C  15)      1.3092         0.016497   
    131. D(O  16,C  12,C  10,C   4)    178.4807         0.016497   
    132. D(O   5,C  12,C  10,C  15)   -177.7251         0.016497   
    133. D(O   5,C  12,C  10,C   4)     -0.5536         0.016497   
    134. D(O  16,C  12,O   5,C   1)   -178.8330         0.017401   
    135. D(C  10,C  12,O   5,C   1)      0.3633         0.017401   
    136. D(H  25,C  13,C   6,O   8)     -0.0603         0.029253   
    137. D(H  25,C  13,C   6,C   2)   -179.9667         0.029253   
    138. D(C  17,C  13,C   6,O   8)    179.8977         0.029253   
    139. D(C  17,C  13,C   6,C   2)     -0.0088         0.029253   
    140. D(H  26,C  14,C   7,H  23)     -0.0798         0.025947   
    141. D(H  26,C  14,C   7,C   2)    179.8822         0.025947   
    142. D(C  17,C  14,C   7,H  23)    179.9579         0.025947   
    143. D(C  17,C  14,C   7,C   2)     -0.0801         0.025947   
    144. D(C  19,C  15,C  10,C  12)     19.2959         0.015525   
    145. D(C  19,C  15,C  10,C   4)   -157.3128         0.015525   
    146. D(C  18,C  15,C  10,C  12)   -160.7263         0.015525   
    147. D(C  18,C  15,C  10,C   4)     22.6650         0.015525   
    148. D(H  27,C  17,C  14,H  26)      0.1072         0.025318   
    149. D(H  27,C  17,C  14,C   7)   -179.9305         0.025318   
    150. D(C  13,C  17,C  14,H  26)   -179.9140         0.025318   
    151. D(C  13,C  17,C  14,C   7)      0.0483         0.025318   
    152. D(H  27,C  17,C  13,H  25)     -0.0663         0.025165   
    153. D(H  27,C  17,C  13,C   6)    179.9761         0.025165   
    154. D(C  14,C  17,C  13,H  25)    179.9547         0.025165   
    155. D(C  14,C  17,C  13,C   6)     -0.0028         0.025165   
    156. D(C  20,C  18,C  15,C  10)   -178.7059         0.021608   
    157. D(H  28,C  18,C  15,C  19)   -178.4206         0.021608   
    158. D(H  28,C  18,C  15,C  10)      1.6016         0.021608   
    159. D(C  20,C  18,C  15,C  19)      1.2719         0.021608   
    160. D(H  29,C  19,C  15,C  18)    177.4841         0.021198   
    161. D(H  29,C  19,C  15,C  10)     -2.5380         0.021198   
    162. D(C  21,C  19,C  15,C  18)     -1.8348         0.021198   
    163. D(C  21,C  19,C  15,C  10)    178.1431         0.021198   
    164. D(H  30,C  20,C  18,H  28)     -0.5311         0.020845   
    165. D(H  30,C  20,C  18,C  15)    179.7765         0.020845   
    166. D(C  22,C  20,C  18,H  28)    179.7622         0.020845   
    167. D(C  22,C  20,C  18,C  15)      0.0698         0.020845   
    168. D(H  31,C  21,C  19,H  29)      1.8748         0.020539   
    169. D(H  31,C  21,C  19,C  15)   -178.8156         0.020539   
    170. D(C  22,C  21,C  19,H  29)   -178.2553         0.020539   
    171. D(C  22,C  21,C  19,C  15)      1.0543         0.020539   
    172. D(H  32,C  22,C  21,H  31)      0.1049         0.023380   
    173. D(H  32,C  22,C  21,C  19)   -179.7641         0.023380   
    174. D(C  20,C  22,C  21,H  31)   -179.8382         0.023380   
    175. D(C  20,C  22,C  21,C  19)      0.2928         0.023380   
    176. D(H  32,C  22,C  20,H  30)     -0.5053         0.022679   
    177. D(H  32,C  22,C  20,C  18)    179.2000         0.022679   
    178. D(C  21,C  22,C  20,H  30)    179.4379         0.022679   
    179. D(C  21,C  22,C  20,C  18)     -0.8567         0.022679   
    -----------------------------------------------------------------

Number of atoms                         .... 33
Number of degrees of freedom            .... 179

         *************************************************************
         *                GEOMETRY OPTIMIZATION CYCLE   1            *
         *************************************************************
---------------------------------
CARTESIAN COORDINATES (ANGSTROEM)
---------------------------------
  C     -1.974585    0.820146   -0.022507
  C     -2.820894    1.881367    0.131843
  C     -0.523838    0.780628    0.054413
  C     -2.388975   -0.552551   -0.328697
  C     -4.287030    1.949446    0.063543
  O     -2.344183    3.107758    0.400468
  C     -0.171149   -0.548869   -0.199393
  C      0.475175    1.722173    0.303634
  O     -1.285427   -1.338528   -0.425121
  O     -3.503088   -1.031224   -0.492990
  C     -4.654943    3.256835    0.308379
  O     -5.078954    0.940413   -0.189825
  C     -3.433417    4.018760    0.518518
  C      1.133062   -0.999270   -0.219968
  C      1.801955    1.290653    0.287214
  C     -6.008442    3.812507    0.296101
  O     -3.209621    5.179459    0.738127
  C      2.125625   -0.045423    0.030698
  C     -7.131729    2.967460    0.490481
  C     -6.198380    5.205832    0.087892
  C     -8.444239    3.517576    0.448499
  C     -7.517079    5.745204    0.035680
  C     -8.628750    4.898241    0.212968
  H      0.216048    2.761793    0.503535
  H     -4.541483    0.094654   -0.333552
  H      1.367574   -2.044047   -0.422327
  H      2.601434    2.008718    0.477343
  H      3.172688   -0.354009    0.025474
  H     -6.990276    1.905199    0.675682
  H     -5.328968    5.852530   -0.019161
  H     -9.307201    2.867193    0.594282
  H     -7.658534    6.810898   -0.143450
  H     -9.639149    5.308086    0.169597

----------------------------
CARTESIAN COORDINATES (A.U.)
----------------------------
  NO LB      ZA    FRAG     MASS         X           Y           Z
   0 C     6.0000    0    12.011   -3.731425    1.549851   -0.042532
   1 C     6.0000    0    12.011   -5.330717    3.555268    0.249147
   2 C     6.0000    0    12.011   -0.989910    1.475173    0.102826
   3 C     6.0000    0    12.011   -4.514508   -1.044170   -0.621147
   4 C     6.0000    0    12.011   -8.101313    3.683919    0.120079
   5 O     8.0000    0    15.999   -4.429864    5.872812    0.756775
   6 C     6.0000    0    12.011   -0.323425   -1.037212   -0.376798
   7 C     6.0000    0    12.011    0.897951    3.254435    0.573785
   8 O     8.0000    0    15.999   -2.429105   -2.529451   -0.803362
   9 O     8.0000    0    15.999   -6.619877   -1.948731   -0.931616
  10 C     6.0000    0    12.011   -8.796567    6.154526    0.582752
  11 O     8.0000    0    15.999   -9.597832    1.777123   -0.358717
  12 C     6.0000    0    12.011   -6.488218    7.594356    0.979857
  13 C     6.0000    0    12.011    2.141177   -1.888347   -0.415679
  14 C     6.0000    0    12.011    3.405201    2.438981    0.542756
  15 C     6.0000    0    12.011  -11.354310    7.204594    0.559550
  16 O     8.0000    0    15.999   -6.065305    9.787759    1.394858
  17 C     6.0000    0    12.011    4.016849   -0.085837    0.058011
  18 C     6.0000    0    12.011  -13.477015    5.607687    0.926875
  19 C     6.0000    0    12.011  -11.713241    9.837597    0.166092
  20 C     6.0000    0    12.011  -15.957299    6.647255    0.847540
  21 C     6.0000    0    12.011  -14.205221   10.856862    0.067425
  22 C     6.0000    0    12.011  -16.305974    9.256334    0.402451
  23 H     1.0000    0     1.008    0.408272    5.219032    0.951543
  24 H     1.0000    0     1.008   -8.582159    0.178870   -0.630322
  25 H     1.0000    0     1.008    2.584340   -3.862689   -0.798082
  26 H     1.0000    0     1.008    4.915998    3.795927    0.902048
  27 H     1.0000    0     1.008    5.995511   -0.668980    0.048139
  28 H     1.0000    0     1.008  -13.209707    3.600304    1.276854
  29 H     1.0000    0     1.008  -10.070290   11.059679   -0.036209
  30 H     1.0000    0     1.008  -17.588061    5.418210    1.123030
  31 H     1.0000    0     1.008  -14.472532   12.870732   -0.271081
  32 H     1.0000    0     1.008  -18.215352   10.030829    0.320492

--------------------------------
INTERNAL COORDINATES (ANGSTROEM)
--------------------------------
 C      0   0   0     0.000000000000     0.00000000     0.00000000
 C      1   0   0     1.366108654838     0.00000000     0.00000000
 C      1   2   0     1.453322131096   129.31242549     0.00000000
 C      1   2   3     1.466208867116   125.15447116   180.87330920
 C      2   1   3     1.469304056599   130.45939166   180.20279087
 O      2   1   3     1.342925036265   120.80381661   359.73136995
 C      3   1   2     1.398702716579   105.54229482   180.80135515
 C      3   1   2     1.395222228907   134.89905258     0.58831549
 O      4   1   2     1.358261985262   109.08416922   179.31190169
 O      4   1   2     1.223669811488   130.66164545   359.34024562
 C      5   2   1     1.380061824625   107.55759372   179.26050837
 O      5   2   1     1.307473349743   125.28432450   359.04289180
 C      6   2   1     1.424882855978   109.21319372   180.33591836
 C      7   3   1     1.379945913414   123.45363911   179.80196451
 C      8   3   1     1.395286456324   118.03821326   180.30367359
 C     11   5   2     1.463175199308   127.22112842   177.62776252
 O     13   6   2     1.202304009433   119.34510810   181.16700906
 C     15   8   3     1.398449786346   121.17941791   359.91994054
 C     16  11   5     1.419035482635   120.32758066    22.66500139
 C     16  11   5     1.421542115855   119.80572821   202.68721819
 C     19  16  11     1.423752998901   119.70940894   181.29410727
 C     20  16  11     1.425698179815   119.98425202   178.14307165
 C     22  20  16     1.408754687855   119.85665613     1.05432016
 H      8   3   1     1.089916031780   120.41242298     0.26615773
 H     12   5   2     1.012344216386   110.52954784     0.06715998
 H     14   7   3     1.089726581650   121.27107651   180.03325050
 H     15   8   3     1.091298791490   119.41143888   179.88223640
 H     18  15   8     1.091601362926   119.53572277   180.06949134
 H     19  16  11     1.087523238249   120.13515593     1.60164412
 H     20  16  11     1.088832344191   119.33137598   357.46202707
 H     21  19  16     1.090391738423   119.68155444   179.77647236
 H     22  20  16     1.089862732440   119.73581550   181.18441603
 H     23  22  20     1.091219550259   119.99088641   180.23587012

---------------------------
INTERNAL COORDINATES (A.U.)
---------------------------
 C      0   0   0     0.000000000000     0.00000000     0.00000000
 C      1   0   0     2.581571226822     0.00000000     0.00000000
 C      1   2   0     2.746380812138   129.31242549     0.00000000
 C      1   2   3     2.770733213976   125.15447116   180.87330920
 C      2   1   3     2.776582274431   130.45939166   180.20279087
 O      2   1   3     2.537760536927   120.80381661   359.73136995
 C      3   1   2     2.643165077106   105.54229482   180.80135515
 C      3   1   2     2.636587908593   134.89905258     0.58831549
 O      4   1   2     2.566743170262   109.08416922   179.31190169
 O      4   1   2     2.312400822059   130.66164545   359.34024562
 C      5   2   1     2.607938896420   107.55759372   179.26050837
 O      5   2   1     2.470766558415   125.28432450   359.04289180
 C      6   2   1     2.692638370718   109.21319372   180.33591836
 C      7   3   1     2.607719855976   123.45363911   179.80196451
 C      8   3   1     2.636709280821   118.03821326   180.30367359
 C     11   5   2     2.765000412637   127.22112842   177.62776252
 O     13   6   2     2.272025307543   119.34510810   181.16700906
 C     15   8   3     2.642687108235   121.17941791   359.91994054
 C     16  11   5     2.681588436497   120.32758066    22.66500139
 C     16  11   5     2.686325286801   119.80572821   202.68721819
 C     19  16  11     2.690503250272   119.70940894   181.29410727
 C     20  16  11     2.694179109481   119.98425202   178.14307165
 C     22  20  16     2.662160549924   119.85665613     1.05432016
 H      8   3   1     2.059642809033   120.41242298     0.26615773
 H     12   5   2     1.913053322229   110.52954784     0.06715998
 H     14   7   3     2.059284800172   121.27107651   180.03325050
 H     15   8   3     2.062255846195   119.41143888   179.88223640
 H     18  15   8     2.062827623345   119.53572277   180.06949134
 H     19  16  11     2.055121084565   120.13515593     1.60164412
 H     20  16  11     2.057594936277   119.33137598   357.46202707
 H     21  19  16     2.060541764311   119.68155444   179.77647236
 H     22  20  16     2.059542087878   119.73581550   181.18441603
 H     23  22  20     2.062106101970   119.99088641   180.23587012

---------------------
BASIS SET INFORMATION
---------------------
There are 3 groups of distinct atoms

 Group   1 Type C   : 17s4p1d contracted to 3s2p1d pattern {881/31/1}
 Group   2 Type O   : 17s4p1d contracted to 3s2p1d pattern {881/31/1}
 Group   3 Type H   : 4s1p contracted to 2s1p pattern {31/1}

Atom   0C    basis set group =>   1
Atom   1C    basis set group =>   1
Atom   2C    basis set group =>   1
Atom   3C    basis set group =>   1
Atom   4C    basis set group =>   1
Atom   5O    basis set group =>   2
Atom   6C    basis set group =>   1
Atom   7C    basis set group =>   1
Atom   8O    basis set group =>   2
Atom   9O    basis set group =>   2
Atom  10C    basis set group =>   1
Atom  11O    basis set group =>   2
Atom  12C    basis set group =>   1
Atom  13C    basis set group =>   1
Atom  14C    basis set group =>   1
Atom  15C    basis set group =>   1
Atom  16O    basis set group =>   2
Atom  17C    basis set group =>   1
Atom  18C    basis set group =>   1
Atom  19C    basis set group =>   1
Atom  20C    basis set group =>   1
Atom  21C    basis set group =>   1
Atom  22C    basis set group =>   1
Atom  23H    basis set group =>   3
Atom  24H    basis set group =>   3
Atom  25H    basis set group =>   3
Atom  26H    basis set group =>   3
Atom  27H    basis set group =>   3
Atom  28H    basis set group =>   3
Atom  29H    basis set group =>   3
Atom  30H    basis set group =>   3
Atom  31H    basis set group =>   3
Atom  32H    basis set group =>   3
---------------------------------
AUXILIARY/J BASIS SET INFORMATION
---------------------------------
There are 3 groups of distinct atoms

 Group   1 Type C   : 12s5p4d2f1g contracted to 6s4p3d1f1g pattern {711111/2111/211/2/1}
 Group   2 Type O   : 12s5p4d2f1g contracted to 6s4p3d1f1g pattern {711111/2111/211/2/1}
 Group   3 Type H   : 5s2p1d contracted to 3s1p1d pattern {311/2/1}

Atom   0C    basis set group =>   1
Atom   1C    basis set group =>   1
Atom   2C    basis set group =>   1
Atom   3C    basis set group =>   1
Atom   4C    basis set group =>   1
Atom   5O    basis set group =>   2
Atom   6C    basis set group =>   1
Atom   7C    basis set group =>   1
Atom   8O    basis set group =>   2
Atom   9O    basis set group =>   2
Atom  10C    basis set group =>   1
Atom  11O    basis set group =>   2
Atom  12C    basis set group =>   1
Atom  13C    basis set group =>   1
Atom  14C    basis set group =>   1
Atom  15C    basis set group =>   1
Atom  16O    basis set group =>   2
Atom  17C    basis set group =>   1
Atom  18C    basis set group =>   1
Atom  19C    basis set group =>   1
Atom  20C    basis set group =>   1
Atom  21C    basis set group =>   1
Atom  22C    basis set group =>   1
Atom  23H    basis set group =>   3
Atom  24H    basis set group =>   3
Atom  25H    basis set group =>   3
Atom  26H    basis set group =>   3
Atom  27H    basis set group =>   3
Atom  28H    basis set group =>   3
Atom  29H    basis set group =>   3
Atom  30H    basis set group =>   3
Atom  31H    basis set group =>   3
Atom  32H    basis set group =>   3
------------------------------------------------------------------------------
                           ORCA GTO INTEGRAL CALCULATION
                           -- RI-GTO INTEGRALS CHOSEN --
------------------------------------------------------------------------------
------------------------------------------------------------------------------
                   ___                                                        
                  /   \      - P O W E R E D   B Y -                         
                 /     \                                                     
                 |  |  |   _    _      __       _____    __    __             
                 |  |  |  | |  | |    /  \     |  _  \  |  |  /  |          
                  \  \/   | |  | |   /    \    | | | |  |  | /  /          
                 / \  \   | |__| |  /  /\  \   | |_| |  |  |/  /          
                |  |  |   |  __  | /  /__\  \  |    /   |      \           
                |  |  |   | |  | | |   __   |  |    \   |  |\   \          
                \     /   | |  | | |  |  |  |  | |\  \  |  | \   \       
                 \___/    |_|  |_| |__|  |__|  |_| \__\ |__|  \__/        
                                                                              
                      - O R C A' S   B I G   F R I E N D -                    
                                      &                                       
                       - I N T E G R A L  F E E D E R -                       
                                                                              
 v1 FN, 2020, v2 2021                                                         
------------------------------------------------------------------------------


Reading SHARK input file calcyn_opt_iroot_8_recook.SHARKINP.tmp ... ok
----------------------
SHARK INTEGRAL PACKAGE
----------------------

Number of atoms                             ...     33
Number of basis functions                   ...    510
Number of shells                            ...    306
Maximum angular momentum                    ...      2
Integral batch strategy                     ... SHARK/LIBINT Hybrid
RI-J (if used) integral strategy            ... SPLIT-RIJ (Revised 2003 algorithm where possible)
Printlevel                                  ...      1
Contraction scheme used                     ... PARTIAL GENERAL contraction
Coulomb Range Separation                    ... NOT USED
Exchange Range Separation                   ... Long Range
   Mu parameter                             ...  0.250000
   Scaling (regular/separated)              ...  0.195728  0.804272
Finite Nucleus Model                        ... NOT USED
Auxiliary Coulomb fitting basis             ... AVAILABLE
   # of basis functions in Aux-J            ...   1237
   # of shells in Aux-J                     ...    395
   Maximum angular momentum in Aux-J        ...      4
Auxiliary J/K fitting basis                 ... NOT available
Auxiliary Correlation fitting basis         ... NOT available
Auxiliary 'external' fitting basis          ... NOT available
Integral threshold                          ...     2.500000e-11
Primitive cut-off                           ...     2.500000e-12
Primitive pair pre-selection threshold      ...     2.500000e-12

Calculating pre-screening integrals         ... done (  0.1 sec) Dimension = 306
Calculating pre-screening integrals (ORCA)  ... done (  0.6 sec) Dimension = 168
Organizing shell pair data                  ... done (  0.2 sec)
Shell pair information
Total number of shell pairs                 ...     46971
Shell pairs after pre-screening             ...     20330
Total number of primitive shell pairs       ...     69477
Primitive shell pairs kept                  ...     26498
          la=0 lb=0:   8272 shell pairs
          la=1 lb=0:   7281 shell pairs
          la=1 lb=1:   1165 shell pairs
          la=2 lb=0:   2556 shell pairs
          la=2 lb=1:    882 shell pairs
          la=2 lb=2:    174 shell pairs

Calculating one electron integrals          ... done (  0.1 sec)
Calculating RI/J V-Matrix + Cholesky decomp.... done (  0.1 sec)
Calculating Nuclear repulsion               ... done (  0.0 sec) ENN=   1755.581140917564 Eh

SHARK setup successfully completed in   1.5 seconds

Maximum memory used throughout the entire GTOINT-calculation: 83.6 MB
-------------------------------------------------------------------------------
                                 ORCA SCF
-------------------------------------------------------------------------------

------------
SCF SETTINGS
------------
Hamiltonian:
 Density Functional     Method          .... DFT(GTOs)
 Exchange Functional    Exchange        .... WB97X-D3
 Correlation Functional Correlation     .... WB97X-D3
 Gradients option       PostSCFGGA      .... off
 Hybrid DFT is turned on
   Fraction HF Exchange ScalHFX         ....  0.195728
   Scaling of DF-GGA-X  ScalDFX         ....  0.000000
   Scaling of DF-GGA-C  ScalDFC         ....  1.000000
   Scaling of DF-LDA-C  ScalLDAC        ....  1.000000
   Perturbative correction              ....  0.000000
   Density functional embedding theory  .... OFF
 Long-range corrected/Screened/Range-Separated Hybrid DFT is turned on
   Amount of maximum screened exact exchange              ....  0.804272
   Range separation parameter mu (erf(mu*r12)/r12)        ....  0.250000
 RI-approximation to the Coulomb term is turned on
   Number of AuxJ basis functions       .... 1237
   RIJ-COSX (HFX calculated with COS-X)).... on


General Settings:
 Integral files         IntName         .... calcyn_opt_iroot_8_recook
 Hartree-Fock type      HFTyp           .... RHF
 Total Charge           Charge          ....    0
 Multiplicity           Mult            ....    1
 Number of Electrons    NEL             ....  158
 Basis Dimension        Dim             ....  372
 Nuclear Repulsion      ENuc            ....   1755.5811409176 Eh

Convergence Acceleration:
 DIIS                   CNVDIIS         .... on
   Start iteration      DIISMaxIt       ....    12
   Startup error        DIISStart       ....  0.200000
   # of expansion vecs  DIISMaxEq       ....     5
   Bias factor          DIISBfac        ....   1.050
   Max. coefficient     DIISMaxC        ....  10.000
 Trust-Rad. Augm. Hess. CNVTRAH         .... auto
   Auto Start mean grad. ratio tolernc. ....  1.125000
   Auto Start start iteration           ....    20
   Auto Start num. interpolation iter.  ....    10
   Max. Number of Micro iterations      ....    16
   Max. Number of Macro iterations      .... Maxiter - #DIIS iter
   Number of Davidson start vectors     ....     2
   Converg. threshold I  (grad. norm)   ....   1.000e-05
   Converg. threshold II (energy diff.) ....   1.000e-08
   Grad. Scal. Fac. for Micro threshold ....   0.100
   Minimum threshold for Micro iter.    ....   0.010
   NR start threshold (gradient norm)   ....   0.001
   Initial trust radius                 ....   0.400
   Minimum AH scaling param. (alpha)    ....   1.000
   Maximum AH scaling param. (alpha)    .... 1000.000
   Orbital update algorithm             .... Taylor
   White noise on init. David. guess    .... on
   Maximum white noise                  ....   0.010
   Quad. conv. algorithm                .... NR
 SOSCF                  CNVSOSCF        .... on
   Start iteration      SOSCFMaxIt      ....   150
   Startup grad/error   SOSCFStart      ....  0.003300
 Level Shifting         CNVShift        .... on
   Level shift para.    LevelShift      ....    0.2500
   Turn off err/grad.   ShiftErr        ....    0.0010
 Zerner damping         CNVZerner       .... off
 Static damping         CNVDamp         .... on
   Fraction old density DampFac         ....    0.7000
   Max. Damping (<1)    DampMax         ....    0.9800
   Min. Damping (>=0)   DampMin         ....    0.0000
   Turn off err/grad.   DampErr         ....    0.1000
 Fernandez-Rico         CNVRico         .... off

SCF Procedure:
 Maximum # iterations   MaxIter         ....   125
 SCF integral mode      SCFMode         .... Direct
   Integral package                     .... SHARK and LIBINT hybrid scheme
 Reset frequency        DirectResetFreq ....    20
 Integral Threshold     Thresh          ....  2.500e-11 Eh
 Primitive CutOff       TCut            ....  2.500e-12 Eh

Convergence Tolerance:
 Convergence Check Mode ConvCheckMode   .... Total+1el-Energy
 Convergence forced     ConvForced      .... 1
 Energy Change          TolE            ....  1.000e-08 Eh
 1-El. energy change                    ....  1.000e-05 Eh
 Orbital Gradient       TolG            ....  1.000e-05
 Orbital Rotation angle TolX            ....  1.000e-05
 DIIS Error             TolErr          ....  5.000e-07


Diagonalization of the overlap matrix:
Smallest eigenvalue                        ... 2.270e-04
Time for diagonalization                   ...    0.043 sec
Threshold for overlap eigenvalues          ... 1.000e-08
Number of eigenvalues below threshold      ... 0
Time for construction of square roots      ...    0.015 sec
Total time needed                          ...    0.059 sec

Time for model grid setup =    1.611 sec

------------------------------
INITIAL GUESS: MODEL POTENTIAL
------------------------------
Loading Hartree-Fock densities                     ... done
Calculating cut-offs                               ... done
Initializing the effective Hamiltonian             ... done
Setting up the integral package (SHARK)            ... done
Starting the Coulomb interaction                   ... done (   2.4 sec)
Reading the grid                                   ... done
Mapping shells                                     ... done
Starting the XC term evaluation                    ... done (   1.4 sec)
  promolecular density results
     # of electrons  =    157.992138449
     EX              =   -135.826452468
     EC              =     -5.359981399
     EX+EC           =   -141.186433867
Transforming the Hamiltonian                       ... done (   0.0 sec)
Diagonalizing the Hamiltonian                      ... done (   0.0 sec)
Back transforming the eigenvectors                 ... done (   0.0 sec)
Now organizing SCF variables                       ... done
                      ------------------
                      INITIAL GUESS DONE (   5.5 sec)
                      ------------------
-------------------
DFT GRID GENERATION
-------------------

General Integration Accuracy     IntAcc      ... 4.388
Radial Grid Type                 RadialGrid  ... OptM3 with GC (2021)
Angular Grid (max. ang.)         AngularGrid ... 4 (Lebedev-302)
Angular grid pruning method      GridPruning ... 4 (adaptive)
Weight generation scheme         WeightScheme... Becke
Basis function cutoff            BFCut       ... 1.0000e-11
Integration weight cutoff        WCut        ... 1.0000e-14
Angular grids for H and He will be reduced by one unit
Partially contracted basis set               ... off
Rotationally invariant grid construction     ... off

Total number of grid points                  ...   169782
Total number of batches                      ...     2673
Average number of points per batch           ...       63
Average number of grid points per atom       ...     5145
Time for grid setup =    5.129 sec

--------------------
COSX GRID GENERATION
--------------------

GRIDX 1
-------
General Integration Accuracy     IntAcc      ... 3.816
Radial Grid Type                 RadialGrid  ... OptM3 with GC (2021)
Angular Grid (max. ang.)         AngularGrid ... 1 (Lebedev-50)
Angular grid pruning method      GridPruning ... 4 (adaptive)
Weight generation scheme         WeightScheme... Becke
Basis function cutoff            BFCut       ... 1.0000e-11
Integration weight cutoff        WCut        ... 1.0000e-14
Angular grids for H and He will be reduced by one unit
Partially contracted basis set               ... on
Rotationally invariant grid construction     ... off

Total number of grid points                  ...    21564
Total number of batches                      ...      351
Average number of points per batch           ...       61
Average number of grid points per atom       ...      653
UseSFitting                                  ... on

GRIDX 2
-------
General Integration Accuracy     IntAcc      ... 4.020
Radial Grid Type                 RadialGrid  ... OptM3 with GC (2021)
Angular Grid (max. ang.)         AngularGrid ... 2 (Lebedev-110)
Angular grid pruning method      GridPruning ... 4 (adaptive)
Weight generation scheme         WeightScheme... Becke
Basis function cutoff            BFCut       ... 1.0000e-11
Integration weight cutoff        WCut        ... 1.0000e-14
Angular grids for H and He will be reduced by one unit
Partially contracted basis set               ... on
Rotationally invariant grid construction     ... off

Total number of grid points                  ...    48139
Total number of batches                      ...      770
Average number of points per batch           ...       62
Average number of grid points per atom       ...     1459
UseSFitting                                  ... on

GRIDX 3
-------
General Integration Accuracy     IntAcc      ... 4.338
Radial Grid Type                 RadialGrid  ... OptM3 with GC (2021)
Angular Grid (max. ang.)         AngularGrid ... 3 (Lebedev-194)
Angular grid pruning method      GridPruning ... 4 (adaptive)
Weight generation scheme         WeightScheme... Becke
Basis function cutoff            BFCut       ... 1.0000e-11
Integration weight cutoff        WCut        ... 1.0000e-14
Angular grids for H and He will be reduced by one unit
Partially contracted basis set               ... on
Rotationally invariant grid construction     ... off

Total number of grid points                  ...   105893
Total number of batches                      ...     1674
Average number of points per batch           ...       63
Average number of grid points per atom       ...     3209
UseSFitting                                  ... on

Time for X-Grid setup             =    7.533 sec

 re-compute Schwartz prescreening matrix in partically contracted basis (1) ...done (   0.187 sec)
--------------
SCF ITERATIONS
--------------
ITER       Energy         Delta-E        Max-DP      RMS-DP      [F,P]     Damp
               ***  Starting incremental Fock matrix formation  ***
