hamilton14.ccc.uam.es
/temporal/fmatar/slurm_tmp_6735120

                                 *****************
                                 * O   R   C   A *
                                 *****************

                                            #,                                       
                                            ###                                      
                                            ####                                     
                                            #####                                    
                                            ######                                   
                                           ########,                                 
                                     ,,################,,,,,                         
                               ,,#################################,,                 
                          ,,##########################################,,             
                       ,#########################################, ''#####,          
                    ,#############################################,,   '####,        
                  ,##################################################,,,,####,       
                ,###########''''           ''''###############################       
              ,#####''   ,,,,##########,,,,          '''####'''          '####       
            ,##' ,,,,###########################,,,                        '##       
           ' ,,###''''                  '''############,,,                           
         ,,##''                                '''############,,,,        ,,,,,,###''
      ,#''                                            '''#######################'''  
     '                                                          ''''####''''         
             ,#######,   #######,   ,#######,      ##                                
            ,#'     '#,  ##    ##  ,#'     '#,    #''#        ######   ,####,        
            ##       ##  ##   ,#'  ##            #'  '#       #        #'  '#        
            ##       ##  #######   ##           ,######,      #####,   #    #        
            '#,     ,#'  ##    ##  '#,     ,#' ,#      #,         ##   #,  ,#        
             '#######'   ##     ##  '#######'  #'      '#     #####' # '####'        



                  #######################################################
                  #                        -***-                        #
                  #          Department of theory and spectroscopy      #
                  #    Directorship and core code : Frank Neese         #
                  #        Max Planck Institute fuer Kohlenforschung    #
                  #                Kaiser Wilhelm Platz 1               #
                  #                 D-45470 Muelheim/Ruhr               #
                  #                      Germany                        #
                  #                                                     #
                  #                  All rights reserved                #
                  #                        -***-                        #
                  #######################################################


                         Program Version 5.0.3 -  RELEASE  -


 With contributions from (in alphabetic order):
   Daniel Aravena         : Magnetic Suceptibility
   Michael Atanasov       : Ab Initio Ligand Field Theory (pilot matlab implementation)
   Alexander A. Auer      : GIAO ZORA, VPT2 properties, NMR spectrum
   Ute Becker             : Parallelization
   Giovanni Bistoni       : ED, misc. LED, open-shell LED, HFLD
   Martin Brehm           : Molecular dynamics
   Dmytro Bykov           : SCF Hessian
   Vijay G. Chilkuri      : MRCI spin determinant printing, contributions to CSF-ICE
   Dipayan Datta          : RHF DLPNO-CCSD density
   Achintya Kumar Dutta   : EOM-CC, STEOM-CC
   Dmitry Ganyushin       : Spin-Orbit,Spin-Spin,Magnetic field MRCI
   Miquel Garcia          : C-PCM and meta-GGA Hessian, CC/C-PCM, Gaussian charge scheme
   Yang Guo               : DLPNO-NEVPT2, F12-NEVPT2, CIM, IAO-localization
   Andreas Hansen         : Spin unrestricted coupled pair/coupled cluster methods
   Benjamin Helmich-Paris : MC-RPA, TRAH-SCF, COSX integrals
   Lee Huntington         : MR-EOM, pCC
   Robert Izsak           : Overlap fitted RIJCOSX, COSX-SCS-MP3, EOM
   Marcus Kettner         : VPT2
   Christian Kollmar      : KDIIS, OOCD, Brueckner-CCSD(T), CCSD density, CASPT2, CASPT2-K
   Simone Kossmann        : Meta GGA functionals, TD-DFT gradient, OOMP2, MP2 Hessian
   Martin Krupicka        : Initial AUTO-CI
   Lucas Lang             : DCDCAS
   Marvin Lechner         : AUTO-CI (C++ implementation), FIC-MRCC
   Dagmar Lenk            : GEPOL surface, SMD
   Dimitrios Liakos       : Extrapolation schemes; Compound Job, initial MDCI parallelization
   Dimitrios Manganas     : Further ROCIS development; embedding schemes
   Dimitrios Pantazis     : SARC Basis sets
   Anastasios Papadopoulos: AUTO-CI, single reference methods and gradients
   Taras Petrenko         : DFT Hessian,TD-DFT gradient, ASA, ECA, R-Raman, ABS, FL, XAS/XES, NRVS
   Peter Pinski           : DLPNO-MP2, DLPNO-MP2 Gradient
   Christoph Reimann      : Effective Core Potentials
   Marius Retegan         : Local ZFS, SOC
   Christoph Riplinger    : Optimizer, TS searches, QM/MM, DLPNO-CCSD(T), (RO)-DLPNO pert. Triples
   Tobias Risthaus        : Range-separated hybrids, TD-DFT gradient, RPA, STAB
   Michael Roemelt        : Original ROCIS implementation
   Masaaki Saitow         : Open-shell DLPNO-CCSD energy and density
   Barbara Sandhoefer     : DKH picture change effects
   Avijit Sen             : IP-ROCIS
   Kantharuban Sivalingam : CASSCF convergence, NEVPT2, FIC-MRCI
   Bernardo de Souza      : ESD, SOC TD-DFT
   Georgi Stoychev        : AutoAux, RI-MP2 NMR, DLPNO-MP2 response
   Willem Van den Heuvel  : Paramagnetic NMR
   Boris Wezisla          : Elementary symmetry handling
   Frank Wennmohs         : Technical directorship


 We gratefully acknowledge several colleagues who have allowed us to
 interface, adapt or use parts of their codes:
   Stefan Grimme, W. Hujo, H. Kruse, P. Pracht,  : VdW corrections, initial TS optimization,
                  C. Bannwarth, S. Ehlert          DFT functionals, gCP, sTDA/sTD-DF
   Ed Valeev, F. Pavosevic, A. Kumar             : LibInt (2-el integral package), F12 methods
   Garnet Chan, S. Sharma, J. Yang, R. Olivares  : DMRG
   Ulf Ekstrom                                   : XCFun DFT Library
   Mihaly Kallay                                 : mrcc  (arbitrary order and MRCC methods)
   Jiri Pittner, Ondrej Demel                    : Mk-CCSD
   Frank Weinhold                                : gennbo (NPA and NBO analysis)
   Christopher J. Cramer and Donald G. Truhlar   : smd solvation model
   Lars Goerigk                                  : TD-DFT with DH, B97 family of functionals
   V. Asgeirsson, H. Jonsson                     : NEB implementation
   FAccTs GmbH                                   : IRC, NEB, NEB-TS, DLPNO-Multilevel, CI-OPT
                                                   MM, QMMM, 2- and 3-layer-ONIOM, Crystal-QMMM,
                                                   LR-CPCM, SF, NACMEs, symmetry and pop. for TD-DFT,
                                                   nearIR, NL-DFT gradient (VV10), updates on ESD,
                                                   ML-optimized integration grids
   S Lehtola, MJT Oliveira, MAL Marques          : LibXC Library
   Liviu Ungur et al                             : ANISO software


 Your calculation uses the libint2 library for the computation of 2-el integrals
 For citations please refer to: http://libint.valeyev.net

 Your ORCA version has been built with support for libXC version: 5.1.0
 For citations please refer to: https://tddft.org/programs/libxc/

 This ORCA versions uses:
   CBLAS   interface :  Fast vector & matrix operations
   LAPACKE interface :  Fast linear algebra routines
   SCALAPACK package :  Parallel linear algebra routines
   Shared memory     :  Shared parallel matrices
   BLAS/LAPACK       :  OpenBLAS 0.3.15  USE64BITINT DYNAMIC_ARCH NO_AFFINITY Prescott SINGLE_THREADED
        Core in use  :  Prescott
   Copyright (c) 2011-2014, The OpenBLAS Project


XCFun DFT library Copyright 2009-2010 Ulf Ekstrom and contributors.
See http://admol.org/xcfun for more information.
This is free software; see the source code for copying conditions.
There is ABSOLUTELY NO WARRANTY; not even for MERCHANTABILITY or FITNESS FOR A PARTICULAR PURPOSE.
For details see the documentation.
Scientific users of this library should cite U. Ekstrom, L. Visscher, R. Bast, A. J. Thorvaldsen and K. Ruud;
J.Chem.Theor.Comp. 2010, DOI: 10.1021/ct100117s
XCFun Version 0.99 

================================================================================

----- Orbital basis set information -----
Your calculation utilizes the basis: cc-pVDZ 
       H, B-Ne : Obtained from the ccRepo (grant-hill.group.shef.ac.uk/ccrepo) Feb. 2017
                 T. H. Dunning, Jr., J. Chem. Phys. 90, 1007 (1989)
            He : Obtained from the ccRepo (grant-hill.group.shef.ac.uk/ccrepo) Feb. 2017
                 D. E. Woon, T. H. Dunning, Jr., J. Chem. Phys. 100, 2975 (1994)
  Li-Be, Na-Mg : Obtained from the ccRepo (grant-hill.group.shef.ac.uk/ccrepo) Feb. 2017
                 B. P. Prascher, D. E. Woon, K. A. Peterson, T. H. Dunning, Jr., A. K. Wilson, Theor. Chem. Acc. 128, 69 (2011)
         Al-Ar : Obtained from the ccRepo (grant-hill.group.shef.ac.uk/ccrepo) Feb. 2017
                 D. E. Woon, T. H. Dunning, Jr., J. Chem. Phys. 98, 1358 (1993)
            Ca : Obtained from the Peterson Research Group Website (tyr0.chem.wsu.edu/~kipeters) Feb. 2017
                 J. Koput, K. A. Peterson, J. Phys. Chem. 106, 9595 (2002)
         Sc-Zn : Obtained from the ccRepo (grant-hill.group.shef.ac.uk/ccrepo) Feb. 2017
                 N. B. Balabanov, K. A. Peterson, J. Chem. Phys. 123, 064107 (2005)
                 N. B. Balabanov, K. A. Peterson, J. Chem. Phys. 125, 074110 (2006)
         Ga-Kr : Obtained from the ccRepo (grant-hill.group.shef.ac.uk/ccrepo) Feb. 2017
                 A. K. Wilson, D. E. Woon, K. A. Peterson, T. H. Dunning, Jr., J. Chem. Phys. 110, 7667 (1999)

----- AuxJ basis set information -----
Your calculation utilizes the auxiliary basis: def2/J
   F. Weigend, Phys. Chem. Chem. Phys. 8, 1057 (2006).

================================================================================
                                        WARNINGS
                       Please study these warnings very carefully!
================================================================================

INFO   : Checking CIS options ...

WARNING: Geometry Optimization
  ===> : Switching off AutoStart
         For restart on a previous wavefunction, please use MOREAD

WARNING: CIS/ROCIS methods need fully converged wavefunctions
  ===> : Setting SCFConvForced true
         You can overwrite this default with %scf ConvForced false 


INFO   : the flag for use of the SHARK integral package has been found!

================================================================================
                                       INPUT FILE
================================================================================
NAME = xanthine_opt_followiroot_5.in
|  1> ! cam-b3lyp cc-pvdz opt 
|  2> 
|  3> %tddft
|  4>  nroots 10
|  5>  tda TRUE
|  6>  IRoot 5
|  7>  followiroot true
|  8> end
|  9> 
| 10> *xyz 0 1 
| 11> N     -3.496257   -0.543515   -0.115550
| 12> C     -2.279446    0.150725   -0.177131
| 13> C     -1.180304   -0.776847   -0.108955
| 14> C     -1.345534   -2.136000    0.001328
| 15> N     -2.598112   -2.697340    0.052940
| 16> C     -3.736575   -1.915106   -0.003319
| 17> N     -0.158497   -2.789925    0.048101
| 18> C      0.740501   -1.820611   -0.034492
| 19> N      0.185285   -0.591620   -0.130674
| 20> H     -4.337129    0.024694   -0.155017
| 21> H     -2.728481   -3.698033    0.134799
| 22> H      0.658302    0.299500   -0.204736
| 23> O     -2.226093    1.360434   -0.273392
| 24> O     -4.856728   -2.372456    0.040592
| 25> H      1.816893   -1.974607   -0.027660
| 26> *
| 27> %pal
| 28>   nprocs 16
| 29>   end
| 30> 
| 31>                          ****END OF INPUT****
================================================================================

                       *****************************
                       * Geometry Optimization Run *
                       *****************************

Geometry optimization settings:
Update method            Update   .... BFGS
Choice of coordinates    CoordSys .... Z-matrix Internals
Initial Hessian          InHess   .... Almoef's Model

Convergence Tolerances:
Energy Change            TolE     ....  5.0000e-06 Eh
Max. Gradient            TolMAXG  ....  3.0000e-04 Eh/bohr
RMS Gradient             TolRMSG  ....  1.0000e-04 Eh/bohr
Max. Displacement        TolMAXD  ....  4.0000e-03 bohr
RMS Displacement         TolRMSD  ....  2.0000e-03 bohr
Strict Convergence                ....  False
------------------------------------------------------------------------------
                        ORCA OPTIMIZATION COORDINATE SETUP
------------------------------------------------------------------------------

The optimization will be done in new redundant internal coordinates
Making redundant internal coordinates   ...  (new redundants) done
Evaluating the initial hessian          ...  (Almloef) done
Evaluating the coordinates              ...  done
Calculating the B-matrix                .... done
Calculating the G-matrix                .... done
Diagonalizing the G-matrix              .... done
The first mode is                       ....   38
The number of degrees of freedom        ....   39

    -----------------------------------------------------------------
                    Redundant Internal Coordinates


    -----------------------------------------------------------------
         Definition                    Initial Value    Approx d2E/dq
    -----------------------------------------------------------------
      1. B(C   1,N   0)                  1.4023         0.534913   
      2. B(C   2,C   1)                  1.4398         0.520254   
      3. B(C   3,C   2)                  1.3736         0.663611   
      4. B(N   4,C   3)                  1.3736         0.594395   
      5. B(C   5,N   4)                  1.3824         0.575347   
      6. B(C   5,N   0)                  1.3970         0.545389   
      7. B(N   6,C   3)                  1.3560         0.633937   
      8. B(C   7,N   6)                  1.3246         0.711546   
      9. B(N   8,C   7)                  1.3520         0.643404   
     10. B(N   8,C   2)                  1.3783         0.584249   
     11. B(H   9,N   0)                  1.0156         0.423865   
     12. B(H  10,N   4)                  1.0125         0.428809   
     13. B(H  11,N   8)                  1.0116         0.430179   
     14. B(O  12,C   1)                  1.2147         1.065485   
     15. B(O  13,C   5)                  1.2107         1.081203   
     16. B(H  14,C   7)                  1.0874         0.363591   
     17. A(C   5,N   0,H   9)          114.2042         0.349734   
     18. A(C   1,N   0,C   5)          129.7079         0.407868   
     19. A(C   1,N   0,H   9)          116.0876         0.348592   
     20. A(N   0,C   1,O  12)          122.3193         0.460056   
     21. A(N   0,C   1,C   2)          109.9617         0.407099   
     22. A(C   2,C   1,O  12)          127.7191         0.460789   
     23. A(C   3,C   2,N   8)          104.6804         0.431892   
     24. A(C   1,C   2,N   8)          131.9924         0.413515   
     25. A(C   1,C   2,C   3)          123.3272         0.425777   
     26. A(C   2,C   3,N   6)          112.0015         0.438286   
     27. A(C   2,C   3,N   4)          121.1368         0.433231   
     28. A(N   4,C   3,N   6)          126.8617         0.426882   
     29. A(C   5,N   4,H  10)          117.1619         0.353602   
     30. A(C   3,N   4,H  10)          121.6263         0.355560   
     31. A(C   3,N   4,C   5)          121.2117         0.419546   
     32. A(N   0,C   5,N   4)          114.6546         0.413171   
     33. A(N   4,C   5,O  13)          123.1404         0.467479   
     34. A(N   0,C   5,O  13)          122.2050         0.462926   
     35. A(C   3,N   6,C   7)          103.8316         0.440923   
     36. A(N   6,C   7,H  14)          124.5975         0.359615   
     37. A(N   6,C   7,N   8)          113.0114         0.442106   
     38. A(N   8,C   7,H  14)          122.3910         0.353519   
     39. A(C   2,N   8,C   7)          106.4751         0.426699   
     40. A(C   7,N   8,H  11)          127.8748         0.360579   
     41. A(C   2,N   8,H  11)          125.6502         0.354715   
     42. D(O  12,C   1,N   0,H   9)     -0.0702         0.022742   
     43. D(C   2,C   1,N   0,C   5)      0.0938         0.022742   
     44. D(C   2,C   1,N   0,H   9)    179.9105         0.022742   
     45. D(O  12,C   1,N   0,C   5)   -179.8869         0.022742   
     46. D(C   3,C   2,C   1,O  12)    179.9199         0.018459   
     47. D(N   8,C   2,C   1,N   0)   -179.9945         0.018459   
     48. D(C   3,C   2,C   1,N   0)     -0.0595         0.018459   
     49. D(N   8,C   2,C   1,O  12)     -0.0151         0.018459   
     50. D(N   6,C   3,C   2,N   8)      0.0010         0.030754   
     51. D(N   6,C   3,C   2,C   1)   -179.9491         0.030754   
     52. D(N   4,C   3,C   2,N   8)    179.9920         0.030754   
     53. D(N   4,C   3,C   2,C   1)      0.0419         0.030754   
     54. D(H  10,N   4,C   3,C   2)   -179.9591         0.028431   
     55. D(C   5,N   4,C   3,N   6)    179.9463         0.028431   
     56. D(C   5,N   4,C   3,C   2)     -0.0433         0.028431   
     57. D(H  10,N   4,C   3,N   6)      0.0305         0.028431   
     58. D(O  13,C   5,N   4,H  10)     -0.0062         0.026523   
     59. D(N   0,C   5,N   4,H  10)    179.9842         0.026523   
     60. D(N   0,C   5,N   4,C   3)      0.0647         0.026523   
     61. D(O  13,C   5,N   0,H   9)      0.0715         0.023687   
     62. D(O  13,C   5,N   0,C   1)    179.8911         0.023687   
     63. D(O  13,C   5,N   4,C   3)   -179.9257         0.026523   
     64. D(N   4,C   5,N   0,H   9)   -179.9189         0.023687   
     65. D(N   4,C   5,N   0,C   1)     -0.0994         0.023687   
     66. D(C   7,N   6,C   3,N   4)   -179.9932         0.029583   
     67. D(C   7,N   6,C   3,C   2)     -0.0029         0.029583   
     68. D(H  14,C   7,N   6,C   3)   -179.9867         0.038036   
     69. D(N   8,C   7,N   6,C   3)      0.0038         0.038036   
     70. D(H  11,N   8,C   2,C   1)     -0.0519         0.027404   
     71. D(C   7,N   8,C   2,C   3)      0.0013         0.027404   
     72. D(C   7,N   8,C   2,C   1)    179.9452         0.027404   
     73. D(H  11,N   8,C   7,H  14)     -0.0155         0.033725   
     74. D(H  11,N   8,C   7,N   6)    179.9937         0.033725   
     75. D(C   2,N   8,C   7,H  14)    179.9874         0.033725   
     76. D(C   2,N   8,C   7,N   6)     -0.0033         0.033725   
     77. D(H  11,N   8,C   2,C   3)   -179.9958         0.027404   
    -----------------------------------------------------------------

Number of atoms                         .... 15
Number of degrees of freedom            .... 77

         *************************************************************
         *                GEOMETRY OPTIMIZATION CYCLE   1            *
         *************************************************************
---------------------------------
CARTESIAN COORDINATES (ANGSTROEM)
---------------------------------
  N     -3.496257   -0.543515   -0.115550
  C     -2.279446    0.150725   -0.177131
  C     -1.180304   -0.776847   -0.108955
  C     -1.345534   -2.136000    0.001328
  N     -2.598112   -2.697340    0.052940
  C     -3.736575   -1.915106   -0.003319
  N     -0.158497   -2.789925    0.048101
  C      0.740501   -1.820611   -0.034492
  N      0.185285   -0.591620   -0.130674
  H     -4.337129    0.024694   -0.155017
  H     -2.728481   -3.698033    0.134799
  H      0.658302    0.299500   -0.204736
  O     -2.226093    1.360434   -0.273392
  O     -4.856728   -2.372456    0.040592
  H      1.816893   -1.974607   -0.027660

----------------------------
CARTESIAN COORDINATES (A.U.)
----------------------------
  NO LB      ZA    FRAG     MASS         X           Y           Z
   0 N     7.0000    0    14.007   -6.606968   -1.027094   -0.218358
   1 C     6.0000    0    12.011   -4.307529    0.284829   -0.334729
   2 C     6.0000    0    12.011   -2.230451   -1.468028   -0.205895
   3 C     6.0000    0    12.011   -2.542691   -4.036455    0.002510
   4 N     7.0000    0    14.007   -4.909720   -5.097234    0.100042
   5 C     6.0000    0    12.011   -7.061103   -3.619026   -0.006272
   6 N     7.0000    0    14.007   -0.299516   -5.272194    0.090898
   7 C     6.0000    0    12.011    1.399344   -3.440456   -0.065180
   8 N     7.0000    0    14.007    0.350138   -1.118000   -0.246938
   9 H     1.0000    0     1.008   -8.195986    0.046665   -0.292940
  10 H     1.0000    0     1.008   -5.156082   -6.988270    0.254733
  11 H     1.0000    0     1.008    1.244010    0.565973   -0.386895
  12 O     8.0000    0    15.999   -4.206706    2.570848   -0.516636
  13 O     8.0000    0    15.999   -9.177886   -4.483292    0.076708
  14 H     1.0000    0     1.008    3.433430   -3.731466   -0.052270

--------------------------------
INTERNAL COORDINATES (ANGSTROEM)
--------------------------------
 N      0   0   0     0.000000000000     0.00000000     0.00000000
 C      1   0   0     1.402280430899     0.00000000     0.00000000
 C      2   1   0     1.439844060419   109.96168849     0.00000000
 C      3   2   1     1.373593888454   123.32717055   359.94048706
 N      4   3   2     1.373578552624   121.13684490     0.04189822
 C      5   4   3     1.382444613070   121.21168665   359.95672729
 N      4   3   2     1.356046628447   112.00147766   180.05089638
 C      7   4   3     1.324608862362   103.83156136     0.00000000
 N      8   7   4     1.352011339398   113.01143802     0.00000000
 H      1   2   3     1.015620417358   116.08762986   179.91053309
 H      5   4   3     1.012464049876   121.62634834   180.04088425
 H      9   8   7     1.011595332400   127.87476359   179.99370601
 O      2   1   3     1.214705144227   122.31925442   180.01928355
 O      6   5   4     1.210718770743   123.14040600   180.07432268
 H      8   7   4     1.087373524555   124.59752694   180.01326891

---------------------------
INTERNAL COORDINATES (A.U.)
---------------------------
 N      0   0   0     0.000000000000     0.00000000     0.00000000
 C      1   0   0     2.649925977356     0.00000000     0.00000000
 C      2   1   0     2.720910949745   109.96168849     0.00000000
 C      3   2   1     2.595716268406   123.32717055   359.94048706
 N      4   3   2     2.595687287887   121.13684490     0.04189822
 C      5   4   3     2.612441714017   121.21168665   359.95672729
 N      4   3   2     2.562556752592   112.00147766   180.05089638
 C      7   4   3     2.503147984430   103.83156136     0.00000000
 N      8   7   4     2.554931161418   113.01143802     0.00000000
 H      1   2   3     1.919244444825   116.08762986   179.91053309
 H      5   4   3     1.913279774706   121.62634834   180.04088425
 H      9   8   7     1.911638136589   127.87476359   179.99370601
 O      2   1   3     2.295460056054   122.31925442   180.01928355
 O      6   5   4     2.287926901902   123.14040600   180.07432268
 H      8   7   4     2.054838166686   124.59752694   180.01326891

---------------------
BASIS SET INFORMATION
---------------------
There are 4 groups of distinct atoms

 Group   1 Type N   : 17s4p1d contracted to 3s2p1d pattern {881/31/1}
 Group   2 Type C   : 17s4p1d contracted to 3s2p1d pattern {881/31/1}
 Group   3 Type H   : 4s1p contracted to 2s1p pattern {31/1}
 Group   4 Type O   : 17s4p1d contracted to 3s2p1d pattern {881/31/1}

Atom   0N    basis set group =>   1
Atom   1C    basis set group =>   2
Atom   2C    basis set group =>   2
Atom   3C    basis set group =>   2
Atom   4N    basis set group =>   1
Atom   5C    basis set group =>   2
Atom   6N    basis set group =>   1
Atom   7C    basis set group =>   2
Atom   8N    basis set group =>   1
Atom   9H    basis set group =>   3
Atom  10H    basis set group =>   3
Atom  11H    basis set group =>   3
Atom  12O    basis set group =>   4
Atom  13O    basis set group =>   4
Atom  14H    basis set group =>   3
---------------------------------
AUXILIARY/J BASIS SET INFORMATION
---------------------------------
There are 4 groups of distinct atoms

 Group   1 Type N   : 12s5p4d2f1g contracted to 6s4p3d1f1g pattern {711111/2111/211/2/1}
 Group   2 Type C   : 12s5p4d2f1g contracted to 6s4p3d1f1g pattern {711111/2111/211/2/1}
 Group   3 Type H   : 5s2p1d contracted to 3s1p1d pattern {311/2/1}
 Group   4 Type O   : 12s5p4d2f1g contracted to 6s4p3d1f1g pattern {711111/2111/211/2/1}

Atom   0N    basis set group =>   1
Atom   1C    basis set group =>   2
Atom   2C    basis set group =>   2
Atom   3C    basis set group =>   2
Atom   4N    basis set group =>   1
Atom   5C    basis set group =>   2
Atom   6N    basis set group =>   1
Atom   7C    basis set group =>   2
Atom   8N    basis set group =>   1
Atom   9H    basis set group =>   3
Atom  10H    basis set group =>   3
Atom  11H    basis set group =>   3
Atom  12O    basis set group =>   4
Atom  13O    basis set group =>   4
Atom  14H    basis set group =>   3


           ************************************************************
           *        Program running with 16 parallel MPI-processes    *
           *              working on a common directory               *
           ************************************************************
------------------------------------------------------------------------------
                           ORCA GTO INTEGRAL CALCULATION
                           -- RI-GTO INTEGRALS CHOSEN --
------------------------------------------------------------------------------
------------------------------------------------------------------------------
                   ___                                                        
                  /   \      - P O W E R E D   B Y -                         
                 /     \                                                     
                 |  |  |   _    _      __       _____    __    __             
                 |  |  |  | |  | |    /  \     |  _  \  |  |  /  |          
                  \  \/   | |  | |   /    \    | | | |  |  | /  /          
                 / \  \   | |__| |  /  /\  \   | |_| |  |  |/  /          
                |  |  |   |  __  | /  /__\  \  |    /   |      \           
                |  |  |   | |  | | |   __   |  |    \   |  |\   \          
                \     /   | |  | | |  |  |  |  | |\  \  |  | \   \       
                 \___/    |_|  |_| |__|  |__|  |_| \__\ |__|  \__/        
                                                                              
                      - O R C A' S   B I G   F R I E N D -                    
                                      &                                       
                       - I N T E G R A L  F E E D E R -                       
                                                                              
 v1 FN, 2020, v2 2021                                                         
------------------------------------------------------------------------------


Reading SHARK input file xanthine_opt_followiroot_5.SHARKINP.tmp ... ok
----------------------
SHARK INTEGRAL PACKAGE
----------------------

Number of atoms                             ...     15
Number of basis functions                   ...    240
Number of shells                            ...    144
Maximum angular momentum                    ...      2
Integral batch strategy                     ... SHARK/LIBINT Hybrid
RI-J (if used) integral strategy            ... SPLIT-RIJ (Revised 2003 algorithm where possible)
Printlevel                                  ...      1
Contraction scheme used                     ... PARTIAL GENERAL contraction
Coulomb Range Separation                    ... NOT USED
Exchange Range Separation                   ... Long Range
   Mu parameter                             ...  0.330000
   Scaling (regular/separated)              ...  0.190000  0.460000
Finite Nucleus Model                        ... NOT USED
Auxiliary Coulomb fitting basis             ... AVAILABLE
   # of basis functions in Aux-J            ...    583
   # of shells in Aux-J                     ...    185
   Maximum angular momentum in Aux-J        ...      4
Auxiliary J/K fitting basis                 ... NOT available
Auxiliary Correlation fitting basis         ... NOT available
Auxiliary 'external' fitting basis          ... NOT available
Integral threshold                          ...     2.500000e-11
Primitive cut-off                           ...     2.500000e-12
Primitive pair pre-selection threshold      ...     2.500000e-12

Calculating pre-screening integrals         ... done (  0.0 sec) Dimension = 144
Calculating pre-screening integrals (ORCA)  ... done (  0.1 sec) Dimension = 78
Organizing shell pair data                  ... done (  0.0 sec)
Shell pair information
Total number of shell pairs                 ...     10440
Shell pairs after pre-screening             ...      6714
Total number of primitive shell pairs       ...     15270
Primitive shell pairs kept                  ...      8986
          la=0 lb=0:   2807 shell pairs
          la=1 lb=0:   2332 shell pairs
          la=1 lb=1:    333 shell pairs
          la=2 lb=0:    913 shell pairs
          la=2 lb=1:    268 shell pairs
          la=2 lb=2:     61 shell pairs

Calculating one electron integrals          ... done (  0.0 sec)
Calculating RI/J V-Matrix + Cholesky decomp.... done (  0.0 sec)
Calculating Nuclear repulsion               ... done (  0.0 sec) ENN=    597.622206529867 Eh

SHARK setup successfully completed in   0.6 seconds

Maximum memory used throughout the entire GTOINT-calculation: 18.2 MB


           ************************************************************
           *        Program running with 16 parallel MPI-processes    *
           *              working on a common directory               *
           ************************************************************
-------------------------------------------------------------------------------
                                 ORCA SCF
-------------------------------------------------------------------------------

------------
SCF SETTINGS
------------
Hamiltonian:
 Density Functional     Method          .... DFT(GTOs)
 Exchange Functional    Exchange        .... WB88
 Correlation Functional Correlation     .... LYP
 LDA part of GGA corr.  LDAOpt          .... VWN-5
 Gradients option       PostSCFGGA      .... off
 Hybrid DFT is turned on
   Fraction HF Exchange ScalHFX         ....  0.190000
   Scaling of DF-GGA-X  ScalDFX         ....  0.350000
   Scaling of DF-GGA-C  ScalDFC         ....  0.810000
   Scaling of DF-LDA-C  ScalLDAC        ....  1.000000
   Perturbative correction              ....  0.000000
   Density functional embedding theory  .... OFF
 Long-range corrected/Screened/Range-Separated Hybrid DFT is turned on
   Amount of maximum screened exact exchange              ....  0.460000
   Range separation parameter mu (erf(mu*r12)/r12)        ....  0.330000
 RI-approximation to the Coulomb term is turned on
   Number of AuxJ basis functions       .... 583
   RIJ-COSX (HFX calculated with COS-X)).... on


General Settings:
 Integral files         IntName         .... xanthine_opt_followiroot_5
 Hartree-Fock type      HFTyp           .... RHF
 Total Charge           Charge          ....    0
 Multiplicity           Mult            ....    1
 Number of Electrons    NEL             ....   78
 Basis Dimension        Dim             ....  174
 Nuclear Repulsion      ENuc            ....    597.6222065299 Eh

Convergence Acceleration:
 DIIS                   CNVDIIS         .... on
   Start iteration      DIISMaxIt       ....    12
   Startup error        DIISStart       ....  0.200000
   # of expansion vecs  DIISMaxEq       ....     5
   Bias factor          DIISBfac        ....   1.050
   Max. coefficient     DIISMaxC        ....  10.000
 Trust-Rad. Augm. Hess. CNVTRAH         .... auto
   Auto Start mean grad. ratio tolernc. ....  1.125000
   Auto Start start iteration           ....    20
   Auto Start num. interpolation iter.  ....    10
   Max. Number of Micro iterations      ....    16
   Max. Number of Macro iterations      .... Maxiter - #DIIS iter
   Number of Davidson start vectors     ....     2
   Converg. threshold I  (grad. norm)   ....   1.000e-05
   Converg. threshold II (energy diff.) ....   1.000e-08
   Grad. Scal. Fac. for Micro threshold ....   0.100
   Minimum threshold for Micro iter.    ....   0.010
   NR start threshold (gradient norm)   ....   0.001
   Initial trust radius                 ....   0.400
   Minimum AH scaling param. (alpha)    ....   1.000
   Maximum AH scaling param. (alpha)    .... 1000.000
   Orbital update algorithm             .... Taylor
   White noise on init. David. guess    .... on
   Maximum white noise                  ....   0.010
   Quad. conv. algorithm                .... NR
 SOSCF                  CNVSOSCF        .... on
   Start iteration      SOSCFMaxIt      ....   150
   Startup grad/error   SOSCFStart      ....  0.003300
 Level Shifting         CNVShift        .... on
   Level shift para.    LevelShift      ....    0.2500
   Turn off err/grad.   ShiftErr        ....    0.0010
 Zerner damping         CNVZerner       .... off
 Static damping         CNVDamp         .... on
   Fraction old density DampFac         ....    0.7000
   Max. Damping (<1)    DampMax         ....    0.9800
   Min. Damping (>=0)   DampMin         ....    0.0000
   Turn off err/grad.   DampErr         ....    0.1000
 Fernandez-Rico         CNVRico         .... off

SCF Procedure:
 Maximum # iterations   MaxIter         ....   125
 SCF integral mode      SCFMode         .... Direct
   Integral package                     .... SHARK and LIBINT hybrid scheme
 Reset frequency        DirectResetFreq ....    20
 Integral Threshold     Thresh          ....  2.500e-11 Eh
 Primitive CutOff       TCut            ....  2.500e-12 Eh

Convergence Tolerance:
 Convergence Check Mode ConvCheckMode   .... Total+1el-Energy
 Convergence forced     ConvForced      .... 1
 Energy Change          TolE            ....  1.000e-08 Eh
 1-El. energy change                    ....  1.000e-05 Eh
 Orbital Gradient       TolG            ....  1.000e-05
 Orbital Rotation angle TolX            ....  1.000e-05
 DIIS Error             TolErr          ....  5.000e-07


Diagonalization of the overlap matrix:
Smallest eigenvalue                        ... 1.001e-03
Time for diagonalization                   ...    0.048 sec
Threshold for overlap eigenvalues          ... 1.000e-08
Number of eigenvalues below threshold      ... 0
Time for construction of square roots      ...    0.006 sec
Total time needed                          ...    0.055 sec

Time for model grid setup =    0.060 sec

------------------------------
INITIAL GUESS: MODEL POTENTIAL
------------------------------
Loading Hartree-Fock densities                     ... done
Calculating cut-offs                               ... done
Initializing the effective Hamiltonian             ... done
Setting up the integral package (SHARK)            ... done
Starting the Coulomb interaction                   ... done (   0.0 sec)
Reading the grid                                   ... done
Mapping shells                                     ... done
Starting the XC term evaluation                    ... done (   0.0 sec)
  promolecular density results
     # of electrons  =     78.000105039
     EX              =    -69.321408506
     EC              =     -2.670996767
     EX+EC           =    -71.992405273
Transforming the Hamiltonian                       ... done (   0.0 sec)
Diagonalizing the Hamiltonian                      ... done (   0.0 sec)
Back transforming the eigenvectors                 ... done (   0.0 sec)
Now organizing SCF variables                       ... done
                      ------------------
                      INITIAL GUESS DONE (   0.1 sec)
                      ------------------
-------------------
DFT GRID GENERATION
-------------------

General Integration Accuracy     IntAcc      ... 4.388
Radial Grid Type                 RadialGrid  ... OptM3 with GC (2021)
Angular Grid (max. ang.)         AngularGrid ... 4 (Lebedev-302)
Angular grid pruning method      GridPruning ... 4 (adaptive)
Weight generation scheme         WeightScheme... Becke
Basis function cutoff            BFCut       ... 1.0000e-11
Integration weight cutoff        WCut        ... 1.0000e-14
Angular grids for H and He will be reduced by one unit
Partially contracted basis set               ... off
Rotationally invariant grid construction     ... off

Total number of grid points                  ...    79160
Total number of batches                      ...     1245
Average number of points per batch           ...       63
Average number of grid points per atom       ...     5277
Time for grid setup =    0.371 sec

--------------------
COSX GRID GENERATION
--------------------

GRIDX 1
-------
General Integration Accuracy     IntAcc      ... 3.816
Radial Grid Type                 RadialGrid  ... OptM3 with GC (2021)
Angular Grid (max. ang.)         AngularGrid ... 1 (Lebedev-50)
Angular grid pruning method      GridPruning ... 4 (adaptive)
Weight generation scheme         WeightScheme... Becke
Basis function cutoff            BFCut       ... 1.0000e-11
Integration weight cutoff        WCut        ... 1.0000e-14
Angular grids for H and He will be reduced by one unit
Partially contracted basis set               ... on
Rotationally invariant grid construction     ... off

Total number of grid points                  ...    10061
Total number of batches                      ...      164
Average number of points per batch           ...       61
Average number of grid points per atom       ...      671
UseSFitting                                  ... on

GRIDX 2
-------
General Integration Accuracy     IntAcc      ... 4.020
Radial Grid Type                 RadialGrid  ... OptM3 with GC (2021)
Angular Grid (max. ang.)         AngularGrid ... 2 (Lebedev-110)
Angular grid pruning method      GridPruning ... 4 (adaptive)
Weight generation scheme         WeightScheme... Becke
Basis function cutoff            BFCut       ... 1.0000e-11
Integration weight cutoff        WCut        ... 1.0000e-14
Angular grids for H and He will be reduced by one unit
Partially contracted basis set               ... on
Rotationally invariant grid construction     ... off

Total number of grid points                  ...    22890
Total number of batches                      ...      365
Average number of points per batch           ...       62
Average number of grid points per atom       ...     1526
UseSFitting                                  ... on

GRIDX 3
-------
General Integration Accuracy     IntAcc      ... 4.338
Radial Grid Type                 RadialGrid  ... OptM3 with GC (2021)
Angular Grid (max. ang.)         AngularGrid ... 3 (Lebedev-194)
Angular grid pruning method      GridPruning ... 4 (adaptive)
Weight generation scheme         WeightScheme... Becke
Basis function cutoff            BFCut       ... 1.0000e-11
Integration weight cutoff        WCut        ... 1.0000e-14
Angular grids for H and He will be reduced by one unit
Partially contracted basis set               ... on
Rotationally invariant grid construction     ... off

Total number of grid points                  ...    50540
Total number of batches                      ...      798
Average number of points per batch           ...       63
Average number of grid points per atom       ...     3369
UseSFitting                                  ... on

Time for X-Grid setup             =    0.263 sec

 re-compute Schwartz prescreening matrix in partically contracted basis (1) ...done (   0.481 sec)
--------------
SCF ITERATIONS
--------------
ITER       Energy         Delta-E        Max-DP      RMS-DP      [F,P]     Damp
               ***  Starting incremental Fock matrix formation  ***
  0   -561.9609920380   0.000000000000 0.10978848  0.00266060  0.2652538 0.7000
  1   -562.0916419748  -0.130649936813 0.07769520  0.00183274  0.1170266 0.7000
                               ***Turning on DIIS***
  2   -562.1434718440  -0.051829869215 0.09818507  0.00290660  0.0439287 0.0000
  3   -562.2333541536  -0.089882309653 0.05697328  0.00118586  0.0613658 0.0000
  4   -562.2473115928  -0.013957439154 0.01002139  0.00026316  0.0115412 0.0000
  5   -562.2481017096  -0.000790116858 0.00448982  0.00009949  0.0037414 0.0000
                      *** Initiating the SOSCF procedure ***
                           *** Shutting down DIIS ***
                      *** Re-Reading the Fockian *** 
                      *** Removing any level shift *** 
ITER      Energy       Delta-E        Grad      Rot      Max-DP    RMS-DP
  6   -562.24817654  -0.0000748270  0.000811  0.000811  0.002279  0.000066
               *** Restarting incremental Fock matrix formation ***
  7   -562.24821576  -0.0000392218  0.000320  0.000726  0.001405  0.000042
  8   -562.24821513   0.0000006243  0.000423  0.000697  0.000824  0.000019
  9   -562.24822082  -0.0000056809  0.000057  0.000232  0.000237  0.000006
 10   -562.24822085  -0.0000000355  0.000050  0.000056  0.000112  0.000003
 11   -562.24822098  -0.0000001283  0.000011  0.000026  0.000037  0.000001
 12   -562.24822098  -0.0000000035  0.000013  0.000012  0.000027  0.000001
                  ***Gradient check signals convergence***
              ***Rediagonalizing the Fockian in SOSCF/NRSCF***

               *****************************************************
               *                     SUCCESS                       *
               *           SCF CONVERGED AFTER  13 CYCLES          *
               *****************************************************

Old exchange energy                            =    -19.537688317 Eh
New exchange energy                            =    -19.537703289 Eh
Exchange energy change after final integration =     -0.000014972 Eh
Total energy after final integration           =   -562.248235952 Eh
Final COS-X integration done in                =     1.388 sec

----------------
TOTAL SCF ENERGY
----------------

Total Energy       :         -562.24823595 Eh          -15299.55231 eV

Components:
Nuclear Repulsion  :          597.62220653 Eh           16262.12699 eV
Electronic Energy  :        -1159.87044248 Eh          -31561.67930 eV
One Electron Energy:        -1950.30732467 Eh          -53070.56036 eV
Two Electron Energy:          790.43688219 Eh           21508.88105 eV
Max COSX asymmetry :            0.00000199 Eh               0.00005 eV

Virial components:
Potential Energy   :        -1121.31885308 Eh          -30512.63722 eV
Kinetic Energy     :          559.07061713 Eh           15213.08491 eV
Virial Ratio       :            2.00568375


DFT components:
N(Alpha)           :       38.999997848891 electrons
N(Beta)            :       38.999997848891 electrons
N(Total)           :       77.999995697781 electrons
E(XC)              :      -53.856680343635 Eh       
DFET-embed. en.    :        0.000000000000 Eh       

---------------
SCF CONVERGENCE
---------------

  Last Energy change         ...    2.3713e-09  Tolerance :   1.0000e-08
  Last MAX-Density change    ...    3.5527e-15  Tolerance :   1.0000e-07
  Last RMS-Density change    ...    5.8529e-17  Tolerance :   5.0000e-09
  Last Orbital Gradient      ...    1.4144e-06  Tolerance :   1.0000e-05
  Last Orbital Rotation      ...    4.4870e-06  Tolerance :   1.0000e-05

             **** THE GBW FILE WAS UPDATED (xanthine_opt_followiroot_5.gbw) ****
             **** DENSITY xanthine_opt_followiroot_5.scfp WAS UPDATED ****
             **** ENERGY FILE WAS UPDATED (xanthine_opt_followiroot_5.en.tmp) ****
             **** THE GBW FILE WAS UPDATED (xanthine_opt_followiroot_5.gbw) ****
             **** DENSITY xanthine_opt_followiroot_5.scfp WAS UPDATED ****
----------------
ORBITAL ENERGIES
----------------

  NO   OCC          E(Eh)            E(eV) 
   0   2.0000     -19.197774      -522.3980 
   1   2.0000     -19.190609      -522.2030 
   2   2.0000     -14.491696      -394.3391 
   3   2.0000     -14.463841      -393.5811 
   4   2.0000     -14.455297      -393.3486 
   5   2.0000     -14.414915      -392.2498 
   6   2.0000     -10.413619      -283.3690 
   7   2.0000     -10.391865      -282.7770 
   8   2.0000     -10.353744      -281.7397 
   9   2.0000     -10.348700      -281.6024 
  10   2.0000     -10.306662      -280.4585 
  11   2.0000      -1.164369       -31.6841 
  12   2.0000      -1.139252       -31.0006 
  13   2.0000      -1.130515       -30.7629 
  14   2.0000      -1.056250       -28.7420 
  15   2.0000      -1.012205       -27.5435 
  16   2.0000      -0.980165       -26.6716 
  17   2.0000      -0.869353       -23.6563 
  18   2.0000      -0.762815       -20.7572 
  19   2.0000      -0.748627       -20.3712 
  20   2.0000      -0.717996       -19.5377 
  21   2.0000      -0.701779       -19.0964 
  22   2.0000      -0.648827       -17.6555 
  23   2.0000      -0.606594       -16.5063 
  24   2.0000      -0.571299       -15.5458 
  25   2.0000      -0.569642       -15.5007 
  26   2.0000      -0.548881       -14.9358 
  27   2.0000      -0.527565       -14.3558 
  28   2.0000      -0.521853       -14.2003 
  29   2.0000      -0.506088       -13.7714 
  30   2.0000      -0.495447       -13.4818 
  31   2.0000      -0.482945       -13.1416 
  32   2.0000      -0.417391       -11.3578 
  33   2.0000      -0.380475       -10.3532 
  34   2.0000      -0.361091        -9.8258 
  35   2.0000      -0.357413        -9.7257 
  36   2.0000      -0.347592        -9.4585 
  37   2.0000      -0.331381        -9.0173 
  38   2.0000      -0.287005        -7.8098 
  39   0.0000       0.008971         0.2441 
  40   0.0000       0.073726         2.0062 
  41   0.0000       0.083695         2.2775 
  42   0.0000       0.083946         2.2843 
  43   0.0000       0.106875         2.9082 
  44   0.0000       0.127466         3.4685 
  45   0.0000       0.134289         3.6542 
  46   0.0000       0.205651         5.5961 
  47   0.0000       0.226412         6.1610 
  48   0.0000       0.235586         6.4106 
  49   0.0000       0.268905         7.3173 
  50   0.0000       0.290251         7.8981 
  51   0.0000       0.295453         8.0397 
  52   0.0000       0.305971         8.3259 
  53   0.0000       0.330699         8.9988 
  54   0.0000       0.373924        10.1750 
  55   0.0000       0.389291        10.5932 
  56   0.0000       0.403303        10.9744 
  57   0.0000       0.453439        12.3387 
  58   0.0000       0.466617        12.6973 
  59   0.0000       0.476896        12.9770 
  60   0.0000       0.497915        13.5490 
  61   0.0000       0.513316        13.9680 
  62   0.0000       0.517134        14.0719 
  63   0.0000       0.530548        14.4369 
  64   0.0000       0.544417        14.8143 
  65   0.0000       0.568392        15.4667 
  66   0.0000       0.580408        15.7937 
  67   0.0000       0.605032        16.4638 
  68   0.0000       0.610048        16.6002 
  69   0.0000       0.643912        17.5217 
  70   0.0000       0.671436        18.2707 
  71   0.0000       0.672463        18.2986 
  72   0.0000       0.685253        18.6467 
  73   0.0000       0.697414        18.9776 
  74   0.0000       0.726578        19.7712 
  75   0.0000       0.748412        20.3653 
  76   0.0000       0.761815        20.7300 
  77   0.0000       0.792558        21.5666 
  78   0.0000       0.818733        22.2788 
  79   0.0000       0.822808        22.3897 
  80   0.0000       0.845967        23.0199 
  81   0.0000       0.847223        23.0541 
  82   0.0000       0.881421        23.9847 
  83   0.0000       0.898405        24.4469 
  84   0.0000       0.908399        24.7188 
  85   0.0000       0.922302        25.0971 
  86   0.0000       0.935361        25.4525 
  87   0.0000       0.952673        25.9235 
  88   0.0000       0.983045        26.7500 
  89   0.0000       1.021909        27.8075 
  90   0.0000       1.029885        28.0246 
  91   0.0000       1.050840        28.5948 
  92   0.0000       1.097148        29.8549 
  93   0.0000       1.118955        30.4483 
  94   0.0000       1.123924        30.5835 
  95   0.0000       1.126188        30.6451 
  96   0.0000       1.135848        30.9080 
  97   0.0000       1.149336        31.2750 
  98   0.0000       1.159943        31.5636 
  99   0.0000       1.176414        32.0119 
 100   0.0000       1.193629        32.4803 
 101   0.0000       1.199608        32.6430 
 102   0.0000       1.239163        33.7194 
 103   0.0000       1.239418        33.7263 
 104   0.0000       1.241655        33.7872 
 105   0.0000       1.268267        34.5113 
 106   0.0000       1.354136        36.8479 
 107   0.0000       1.389942        37.8222 
 108   0.0000       1.425403        38.7872 
 109   0.0000       1.481966        40.3263 
 110   0.0000       1.495328        40.6899 
 111   0.0000       1.541442        41.9448 
 112   0.0000       1.561392        42.4876 
 113   0.0000       1.585879        43.1540 
 114   0.0000       1.607554        43.7438 
 115   0.0000       1.632700        44.4280 
 116   0.0000       1.666042        45.3353 
 117   0.0000       1.673737        45.5447 
 118   0.0000       1.696282        46.1582 
 119   0.0000       1.705842        46.4183 
 120   0.0000       1.729394        47.0592 
 121   0.0000       1.738497        47.3069 
 122   0.0000       1.747864        47.5618 
 123   0.0000       1.780800        48.4580 
 124   0.0000       1.792357        48.7725 
 125   0.0000       1.812743        49.3272 
 126   0.0000       1.848858        50.3100 
 127   0.0000       1.896102        51.5955 
 128   0.0000       1.917545        52.1791 
 129   0.0000       1.923645        52.3451 
 130   0.0000       1.947960        53.0067 
 131   0.0000       1.971834        53.6563 
 132   0.0000       2.013775        54.7976 
 133   0.0000       2.038045        55.4580 
 134   0.0000       2.075534        56.4781 
 135   0.0000       2.112553        57.4855 
 136   0.0000       2.143051        58.3154 
 137   0.0000       2.150147        58.5085 
 138   0.0000       2.189518        59.5798 
 139   0.0000       2.212788        60.2130 
 140   0.0000       2.235733        60.8374 
 141   0.0000       2.269753        61.7631 
 142   0.0000       2.303714        62.6873 
 143   0.0000       2.319566        63.1186 
 144   0.0000       2.324268        63.2465 
 145   0.0000       2.374286        64.6076 
 146   0.0000       2.413446        65.6732 
 147   0.0000       2.471672        67.2576 
 148   0.0000       2.477409        67.4137 
 149   0.0000       2.485014        67.6207 
 150   0.0000       2.516589        68.4799 
 151   0.0000       2.551409        69.4274 
 152   0.0000       2.573686        70.0336 
 153   0.0000       2.607316        70.9487 
 154   0.0000       2.654527        72.2333 
 155   0.0000       2.671837        72.7044 
 156   0.0000       2.695296        73.3427 
 157   0.0000       2.769076        75.3504 
 158   0.0000       2.770920        75.4006 
 159   0.0000       2.806964        76.3814 
 160   0.0000       2.848385        77.5085 
 161   0.0000       2.853051        77.6355 
 162   0.0000       2.870277        78.1042 
 163   0.0000       3.010987        81.9331 
 164   0.0000       3.058822        83.2348 
 165   0.0000       3.141223        85.4770 
 166   0.0000       3.156214        85.8849 
 167   0.0000       3.212643        87.4205 
 168   0.0000       3.366355        91.6032 
 169   0.0000       3.476735        94.6068 
 170   0.0000       3.512151        95.5705 
 171   0.0000       3.544856        96.4604 
 172   0.0000       3.571572        97.1874 
 173   0.0000       3.649218        99.3003 

                    ********************************
                    * MULLIKEN POPULATION ANALYSIS *
                    ********************************

-----------------------
MULLIKEN ATOMIC CHARGES
-----------------------
   0 N :   -0.117364
   1 C :    0.139819
   2 C :   -0.009693
   3 C :    0.142939
   4 N :   -0.113294
   5 C :    0.172330
   6 N :   -0.198263
   7 C :    0.141738
   8 N :   -0.064330
   9 H :    0.118227
  10 H :    0.113130
  11 H :    0.113964
  12 O :   -0.226619
  13 O :   -0.238732
  14 H :    0.026147
Sum of atomic charges:   -0.0000000

--------------------------------
MULLIKEN REDUCED ORBITAL CHARGES
--------------------------------
  0 N s       :     3.381828  s :     3.381828
      pz      :     1.614661  p :     3.710925
      px      :     1.063789
      py      :     1.032474
      dz2     :     0.002460  d :     0.024611
      dxz     :     0.002462
      dyz     :     0.003558
      dx2y2   :     0.007815
      dxy     :     0.008316
  1 C s       :     3.021923  s :     3.021923
      pz      :     0.830635  p :     2.625490
      px      :     0.927139
      py      :     0.867716
      dz2     :     0.009206  d :     0.212768
      dxz     :     0.019835
      dyz     :     0.049573
      dx2y2   :     0.044216
      dxy     :     0.089938
  2 C s       :     3.090838  s :     3.090838
      pz      :     1.167963  p :     2.821052
      px      :     0.764456
      py      :     0.888633
      dz2     :     0.006659  d :     0.097804
      dxz     :     0.019795
      dyz     :     0.011556
      dx2y2   :     0.032311
      dxy     :     0.027482
  3 C s       :     3.032188  s :     3.032188
      pz      :     0.975017  p :     2.673041
      px      :     0.744314
      py      :     0.953710
      dz2     :     0.008122  d :     0.151831
      dxz     :     0.033513
      dyz     :     0.020162
      dx2y2   :     0.045830
      dxy     :     0.044205
  4 N s       :     3.379962  s :     3.379962
      pz      :     1.623334  p :     3.705360
      px      :     1.041690
      py      :     1.040336
      dz2     :     0.002428  d :     0.027972
      dxz     :     0.006167
      dyz     :     0.001828
      dx2y2   :     0.008818
      dxy     :     0.008732
  5 C s       :     2.959599  s :     2.959599
      pz      :     0.849301  p :     2.620298
      px      :     0.869937
      py      :     0.901060
      dz2     :     0.010536  d :     0.247774
      dxz     :     0.052253
      dyz     :     0.029562
      dx2y2   :     0.077447
      dxy     :     0.077976
  6 N s       :     3.495858  s :     3.495858
      pz      :     1.199862  p :     3.660539
      px      :     0.982396
      py      :     1.478282
      dz2     :     0.004826  d :     0.041866
      dxz     :     0.006281
      dyz     :     0.007777
      dx2y2   :     0.007261
      dxy     :     0.015721
  7 C s       :     3.057679  s :     3.057679
      pz      :     0.974802  p :     2.671483
      px      :     0.871793
      py      :     0.824888
      dz2     :     0.006645  d :     0.129099
      dxz     :     0.011468
      dyz     :     0.028050
      dx2y2   :     0.049593
      dxy     :     0.033343
  8 N s       :     3.384764  s :     3.384764
      pz      :     1.513549  p :     3.643478
      px      :     1.104777
      py      :     1.025152
      dz2     :     0.002469  d :     0.036088
      dxz     :     0.008896
      dyz     :     0.003867
      dx2y2   :     0.010033
      dxy     :     0.010822
  9 H s       :     0.829321  s :     0.829321
      pz      :     0.012285  p :     0.052452
      px      :     0.025105
      py      :     0.015062
 10 H s       :     0.833078  s :     0.833078
      pz      :     0.013643  p :     0.053792
      px      :     0.007209
      py      :     0.032940
 11 H s       :     0.831890  s :     0.831890
      pz      :     0.013179  p :     0.054146
      px      :     0.012583
      py      :     0.028384
 12 O s       :     3.705856  s :     3.705856
      pz      :     1.414042  p :     4.502113
      px      :     1.747848
      py      :     1.340222
      dz2     :     0.002219  d :     0.018651
      dxz     :     0.000049
      dyz     :     0.005693
      dx2y2   :     0.006787
      dxy     :     0.003903
 13 O s       :     3.705377  s :     3.705377
      pz      :     1.453011  p :     4.514207
      px      :     1.390854
      py      :     1.670342
      dz2     :     0.002290  d :     0.019149
      dxz     :     0.004967
      dyz     :     0.000841
      dx2y2   :     0.005536
      dxy     :     0.005514
 14 H s       :     0.945834  s :     0.945834
      pz      :     0.005871  p :     0.028019
      px      :     0.019221
      py      :     0.002927


                     *******************************
                     * LOEWDIN POPULATION ANALYSIS *
                     *******************************

----------------------
LOEWDIN ATOMIC CHARGES
----------------------
   0 N :    0.129735
   1 C :   -0.147048
   2 C :   -0.146694
   3 C :   -0.095472
   4 N :    0.149868
   5 C :   -0.164678
   6 N :   -0.020737
   7 C :   -0.053661
   8 N :    0.220765
   9 H :    0.081341
  10 H :    0.083384
  11 H :    0.085433
  12 O :   -0.069677
  13 O :   -0.079238
  14 H :    0.026680

-------------------------------
LOEWDIN REDUCED ORBITAL CHARGES
-------------------------------
  0 N s       :     3.003374  s :     3.003374
      pz      :     1.508253  p :     3.788922
      px      :     1.141466
      py      :     1.139204
      dz2     :     0.007394  d :     0.077969
      dxz     :     0.005196
      dyz     :     0.008036
      dx2y2   :     0.026414
      dxy     :     0.030929
  1 C s       :     2.809016  s :     2.809016
      pz      :     0.826506  p :     2.809429
      px      :     0.963127
      py      :     1.019795
      dz2     :     0.029198  d :     0.528603
      dxz     :     0.047900
      dyz     :     0.104705
      dx2y2   :     0.114077
      dxy     :     0.232723
  2 C s       :     2.794083  s :     2.794083
      pz      :     1.112342  p :     3.067011
      px      :     0.918697
      py      :     1.035971
      dz2     :     0.022792  d :     0.285600
      dxz     :     0.048629
      dyz     :     0.028393
      dx2y2   :     0.105895
      dxy     :     0.079892
  3 C s       :     2.783250  s :     2.783250
      pz      :     0.954586  p :     2.922583
      px      :     0.933249
      py      :     1.034748
      dz2     :     0.024767  d :     0.389639
      dxz     :     0.073667
      dyz     :     0.050742
      dx2y2   :     0.126930
      dxy     :     0.113533
  4 N s       :     2.974017  s :     2.974017
      pz      :     1.517526  p :     3.789692
      px      :     1.134028
      py      :     1.138138
      dz2     :     0.006603  d :     0.086423
      dxz     :     0.013869
      dyz     :     0.003596
      dx2y2   :     0.032178
      dxy     :     0.030177
  5 C s       :     2.797315  s :     2.797315
      pz      :     0.848962  p :     2.785711
      px      :     0.997824
      py      :     0.938925
      dz2     :     0.030959  d :     0.581651
      dxz     :     0.110712
      dyz     :     0.069154
      dx2y2   :     0.184501
      dxy     :     0.186326
  6 N s       :     3.169718  s :     3.169718
      pz      :     1.172228  p :     3.756809
      px      :     1.101133
      py      :     1.483448
      dz2     :     0.009847  d :     0.094209
      dxz     :     0.015454
      dyz     :     0.008743
      dx2y2   :     0.018977
      dxy     :     0.041188
  7 C s       :     2.824653  s :     2.824653
      pz      :     0.958787  p :     2.905322
      px      :     1.013227
      py      :     0.933308
      dz2     :     0.021001  d :     0.323686
      dxz     :     0.018173
      dyz     :     0.068309
      dx2y2   :     0.126539
      dxy     :     0.089664
  8 N s       :     2.965425  s :     2.965425
      pz      :     1.420076  p :     3.712158
      px      :     1.148628
      py      :     1.143454
      dz2     :     0.006119  d :     0.101652
      dxz     :     0.019530
      dyz     :     0.008004
      dx2y2   :     0.033461
      dxy     :     0.034538
  9 H s       :     0.781022  s :     0.781022
      pz      :     0.041027  p :     0.137638
      px      :     0.060211
      py      :     0.036399
 10 H s       :     0.777004  s :     0.777004
      pz      :     0.043466  p :     0.139612
      px      :     0.019091
      py      :     0.077055
 11 H s       :     0.776139  s :     0.776139
      pz      :     0.039415  p :     0.138429
      px      :     0.032849
      py      :     0.066165
 12 O s       :     3.481956  s :     3.481956
      pz      :     1.394226  p :     4.555648
      px      :     1.715435
      py      :     1.445987
      dz2     :     0.004659  d :     0.032074
      dxz     :     0.000065
      dyz     :     0.006868
      dx2y2   :     0.014150
      dxy     :     0.006330
 13 O s       :     3.481320  s :     3.481320
      pz      :     1.428835  p :     4.565345
      px      :     1.476874
      py      :     1.659635
      dz2     :     0.004834  d :     0.032573
      dxz     :     0.006015
      dyz     :     0.001011
      dx2y2   :     0.010439
      dxy     :     0.010274
 14 H s       :     0.891530  s :     0.891530
      pz      :     0.018209  p :     0.081790
      px      :     0.051913
      py      :     0.011669


                      *****************************
                      * MAYER POPULATION ANALYSIS *
                      *****************************

  NA   - Mulliken gross atomic population
  ZA   - Total nuclear charge
  QA   - Mulliken gross atomic charge
  VA   - Mayer's total valence
  BVA  - Mayer's bonded valence
  FA   - Mayer's free valence

  ATOM       NA         ZA         QA         VA         BVA        FA
  0 N      7.1174     7.0000    -0.1174     3.2686     3.2686    -0.0000
  1 C      5.8602     6.0000     0.1398     4.3911     4.3911    -0.0000
  2 C      6.0097     6.0000    -0.0097     3.7094     3.7094    -0.0000
  3 C      5.8571     6.0000     0.1429     4.0754     4.0754     0.0000
  4 N      7.1133     7.0000    -0.1133     3.3517     3.3517    -0.0000
  5 C      5.8277     6.0000     0.1723     4.5496     4.5496    -0.0000
  6 N      7.1983     7.0000    -0.1983     3.2357     3.2357     0.0000
  7 C      5.8583     6.0000     0.1417     4.0593     4.0593     0.0000
  8 N      7.0643     7.0000    -0.0643     3.5835     3.5835    -0.0000
  9 H      0.8818     1.0000     0.1182     1.0297     1.0297    -0.0000
 10 H      0.8869     1.0000     0.1131     1.0285     1.0285    -0.0000
 11 H      0.8860     1.0000     0.1140     1.0129     1.0129    -0.0000
 12 O      8.2266     8.0000    -0.2266     2.3933     2.3933    -0.0000
 13 O      8.2387     8.0000    -0.2387     2.3843     2.3843    -0.0000
 14 H      0.9739     1.0000     0.0261     0.9968     0.9968     0.0000

  Mayer bond orders larger than 0.100000
B(  0-N ,  1-C ) :   1.1097 B(  0-N ,  5-C ) :   1.1157 B(  0-N ,  9-H ) :   0.9203 
B(  1-C ,  2-C ) :   1.0127 B(  1-C , 12-O ) :   2.2154 B(  2-C ,  3-C ) :   1.3529 
B(  2-C ,  8-N ) :   1.1582 B(  3-C ,  4-N ) :   1.1355 B(  3-C ,  6-N ) :   1.4817 
B(  4-N ,  5-C ) :   1.1498 B(  4-N , 10-H ) :   0.9283 B(  5-C , 13-O ) :   2.2131 
B(  6-N ,  7-C ) :   1.6123 B(  7-C ,  8-N ) :   1.3467 B(  7-C , 14-H ) :   0.9695 
B(  8-N , 11-H ) :   0.9473 

-------
TIMINGS
-------

Total SCF time: 0 days 0 hours 0 min 11 sec 

Total time                  ....      11.080 sec
Sum of individual times     ....      10.348 sec  ( 93.4%)

Fock matrix formation       ....       9.418 sec  ( 85.0%)
  Split-RI-J                ....       0.726 sec  (  7.7% of F)
  Chain of spheres X        ....       7.705 sec  ( 81.8% of F)
  XC integration            ....       0.946 sec  ( 10.0% of F)
    Basis function eval.    ....       0.267 sec  ( 28.2% of XC)
    Density eval.           ....       0.258 sec  ( 27.3% of XC)
    XC-Functional eval.     ....       0.146 sec  ( 15.4% of XC)
    XC-Potential eval.      ....       0.171 sec  ( 18.1% of XC)
Diagonalization             ....       0.071 sec  (  0.6%)
Density matrix formation    ....       0.004 sec  (  0.0%)
Population analysis         ....       0.010 sec  (  0.1%)
Initial guess               ....       0.050 sec  (  0.5%)
Orbital Transformation      ....       0.000 sec  (  0.0%)
Orbital Orthonormalization  ....       0.000 sec  (  0.0%)
DIIS solution               ....       0.040 sec  (  0.4%)
SOSCF solution              ....       0.060 sec  (  0.5%)
Grid generation             ....       0.694 sec  (  6.3%)

Maximum memory used throughout the entire SCF-calculation: 59.0 MB


           ************************************************************
           *        Program running with 16 parallel MPI-processes    *
           *              working on a common directory               *
           ************************************************************
------------------------------------------------------------------------------
                        ORCA TD-DFT/TDA CALCULATION
------------------------------------------------------------------------------

Input orbitals are from        ... xanthine_opt_followiroot_5.gbw
CI-vector output               ... xanthine_opt_followiroot_5.cis
Tamm-Dancoff approximation     ... operative
CIS-Integral strategy          ... AO-integrals
Integral handling              ... AO integral Direct
Max. core memory used          ... 512 MB
Reference state                ... RHF
Generation of triplets         ... off
Follow IRoot                   ... on
Number of operators            ... 1
Orbital ranges used for CIS calculation:
 Operator 0:  Orbitals  11... 38  to  39...173
XAS localization array:
 Operator 0:  Orbitals  -1... -1

-------------------
XC-INTEGRATION GRID
-------------------

General Integration Accuracy     IntAcc      ... 3.467
Radial Grid Type                 RadialGrid  ... OptM3 with GC (2021)
Angular Grid (max. ang.)         AngularGrid ... 1 (Lebedev-50)
Angular grid pruning method      GridPruning ... 4 (adaptive)
Weight generation scheme         WeightScheme... Becke
Basis function cutoff            BFCut       ... 1.0000e-11
Integration weight cutoff        WCut        ... 1.0000e-14
Angular grids for H and He will be reduced by one unit
Partially contracted basis set               ... off
Rotationally invariant grid construction     ... off

Total number of grid points                  ...    12052
Total number of batches                      ...      197
Average number of points per batch           ...       61
Average number of grid points per atom       ...      803

---------------------
COSX-INTEGRATION GRID
---------------------

General Integration Accuracy     IntAcc      ... 3.067
Radial Grid Type                 RadialGrid  ... OptM3 with GC (2021)
Angular Grid (max. ang.)         AngularGrid ... 1 (Lebedev-50)
Angular grid pruning method      GridPruning ... 4 (adaptive)
Weight generation scheme         WeightScheme... Becke
Basis function cutoff            BFCut       ... 1.0000e-11
Integration weight cutoff        WCut        ... 1.0000e-14
Angular grids for H and He will be reduced by one unit
Partially contracted basis set               ... on
Rotationally invariant grid construction     ... off

Total number of grid points                  ...     5412
Total number of batches                      ...       93
Average number of points per batch           ...       58
Average number of grid points per atom       ...      361

---------------
TD-DFT XC SETUP
---------------

DFT calculation                         ... on
Name of the grid file                   ... xanthine_opt_followiroot_5.grid_cis.tmp
Exchange functional (TD-DFT)            ... WB88
Correlation functional (TD-DFT)         ... LYP
 LDA part of GGA corr.  LDAOpt (TD-DFT) ... VWN-5
Hybrid DFT                              ... on
   Exchange mixing (TD-DFT)             ...  0.190
   GGA exch. scaling (TD-DFT)           ...  0.350
   GGA corr. scaling (TD-DFT)           ...  0.810
Range-Separated Exchange                ... on
   Range Range separation parameter mu  .... 0.330
   Max. amount of RS exchange (TD-DFT)  ...  0.460

Building densities             ... done
Calculating rho(r) on the grid ... done
Building xc-kernel on the grid ... done
                    *** TD-DFT CALCULATION INITIALIZED ***

------------------------
DAVIDSON-DIAGONALIZATION
------------------------

Dimension of the eigenvalue problem            ...   3780
Number of roots to be determined               ...     10
Maximum size of the expansion space            ...    100
Maximum number of iterations                   ...    100
Convergence tolerance for the residual         ...    2.500e-07
Convergence tolerance for the energies         ...    2.500e-07
Orthogonality tolerance                        ...    1.000e-14
Level Shift                                    ...    0.000e+00
Constructing the preconditioner                ... o.k.
Building the initial guess                     ... o.k.
Number of trial vectors determined             ...    100


                       ****Iteration    0****

   Memory handling for direct AO based CIS:
   Memory per vector needed      ...     1 MB
   Memory needed                 ...    51 MB
   Memory available              ...   512 MB
   Number of vectors per batch   ...   295
   Number of batches             ...     1
   Time for densities:            0.014
   Time for RI-J (Direct):        0.203
   Time for K (COSX):             0.824
   Time for XC-Integration:       0.350
   Time for Sigma-Completion:     0.014
   Size of expansion space: 30
   Lowest Energy          :     0.202930275592
   Maximum Energy change  :     0.290178544269 (vector 9)
   Maximum residual norm  :     0.022549283682

                       ****Iteration    1****
   Time for densities:            0.005
   Time for RI-J (Direct):        0.090
   Time for K (COSX):             0.353
   Time for XC-Integration:       0.123
   Time for Sigma-Completion:     0.005
   Size of expansion space: 40
   Lowest Energy          :     0.196370801922
   Maximum Energy change  :     0.019577621886 (vector 1)
   Maximum residual norm  :     0.001293507599

                       ****Iteration    2****
   Time for densities:            0.005
   Time for RI-J (Direct):        0.089
   Time for K (COSX):             0.363
   Time for XC-Integration:       0.128
   Time for Sigma-Completion:     0.005
   Size of expansion space: 50
   Lowest Energy          :     0.196123582728
   Maximum Energy change  :     0.001563159952 (vector 7)
   Maximum residual norm  :     0.000135161013

                       ****Iteration    3****
   Time for densities:            0.005
   Time for RI-J (Direct):        0.091
   Time for K (COSX):             0.351
   Time for XC-Integration:       0.124
   Time for Sigma-Completion:     0.005
   Size of expansion space: 60
   Lowest Energy          :     0.196116843236
   Maximum Energy change  :     0.000199495545 (vector 7)
   Maximum residual norm  :     0.000015025805

                       ****Iteration    4****
   Time for densities:            0.005
   Time for RI-J (Direct):        0.088
   Time for K (COSX):             0.357
   Time for XC-Integration:       0.125
   Time for Sigma-Completion:     0.005
   Size of expansion space: 70
   Lowest Energy          :     0.196116629765
   Maximum Energy change  :     0.000024482896 (vector 7)
   Maximum residual norm  :     0.000002662960

                       ****Iteration    5****
   Time for densities:            0.005
   Time for RI-J (Direct):        0.089
   Time for K (COSX):             0.356
   Time for XC-Integration:       0.127
   Time for Sigma-Completion:     0.005
   Size of expansion space: 80
   Lowest Energy          :     0.196116623549
   Maximum Energy change  :     0.000004140266 (vector 7)
   Maximum residual norm  :     0.000001235377

                       ****Iteration    6****
   Time for densities:            0.005
   Time for RI-J (Direct):        0.089
   Time for K (COSX):             0.355
   Time for XC-Integration:       0.133
   Time for Sigma-Completion:     0.005
   Size of expansion space: 90
   Lowest Energy          :     0.196116623377
   Maximum Energy change  :     0.004783213740 (vector 9)
   Maximum residual norm  :     0.000256571191

                       ****Iteration    7****
   Time for densities:            0.005
   Time for RI-J (Direct):        0.093
   Time for K (COSX):             0.357
   Time for XC-Integration:       0.128
   Time for Sigma-Completion:     0.005
   Size of expansion space: 100
   Lowest Energy          :     0.196116623373
   Maximum Energy change  :     0.000404765244 (vector 9)
   Maximum residual norm  :     0.000018265160
   Rebuilding the expansion space

                       ****Iteration    8****
   Time for densities:            0.010
   Time for RI-J (Direct):        0.133
   Time for K (COSX):             0.560
   Time for XC-Integration:       0.245
   Time for Sigma-Completion:     0.009
   Size of expansion space: 20
   Lowest Energy          :     0.196116130243
   Maximum Energy change  :     0.000025679853 (vector 9)
   Maximum residual norm  :     0.000001921770

                       ****Iteration    9****
   Time for densities:            0.005
   Time for RI-J (Direct):        0.089
   Time for K (COSX):             0.352
   Time for XC-Integration:       0.126
   Time for Sigma-Completion:     0.005
   Size of expansion space: 30
   Lowest Energy          :     0.196116130240
   Maximum Energy change  :     0.000002714261 (vector 9)
   Maximum residual norm  :     0.000000224870

      *** CONVERGENCE OF RESIDUAL NORM REACHED ***

Storing the converged CI vectors               ... xanthine_opt_followiroot_5.cis1

                 *** DAVIDSON DONE ***

Total time for solving the CIS problem:     7.185sec

------------------------------------
TD-DFT/TDA EXCITED STATES (SINGLETS)
------------------------------------

the weight of the individual excitations are printed if larger than 1.0e-02

STATE  1:  E=   0.196116 au      5.337 eV    43042.5 cm**-1 <S**2> =   0.000000
    33a ->  39a  :     0.017034 (c=  0.13051477)
    33a ->  41a  :     0.011618 (c=  0.10778907)
    34a ->  39a  :     0.126939 (c= -0.35628482)
    37a ->  39a  :     0.740869 (c=  0.86073770)
    37a ->  41a  :     0.059420 (c=  0.24376221)
    37a ->  46a  :     0.014434 (c= -0.12014284)

STATE  2:  E=   0.201825 au      5.492 eV    44295.4 cm**-1 <S**2> =   0.000000
    35a ->  40a  :     0.020432 (c=  0.14294131)
    36a ->  39a  :     0.012434 (c= -0.11150735)
    38a ->  39a  :     0.905790 (c=  0.95173001)

STATE  3:  E=   0.241820 au      6.580 eV    53073.4 cm**-1 <S**2> =   0.000000
    35a ->  39a  :     0.369690 (c=  0.60802097)
    36a ->  39a  :     0.018512 (c=  0.13605906)
    36a ->  40a  :     0.011875 (c= -0.10897137)
    38a ->  40a  :     0.265405 (c= -0.51517433)
    38a ->  41a  :     0.294106 (c= -0.54231585)

STATE  4:  E=   0.242112 au      6.588 eV    53137.5 cm**-1 <S**2> =   0.000000
    33a ->  39a  :     0.071335 (c=  0.26708592)
    33a ->  40a  :     0.011516 (c=  0.10731200)
    34a ->  39a  :     0.054752 (c=  0.23399041)
    34a ->  40a  :     0.323240 (c= -0.56854230)
    34a ->  46a  :     0.024448 (c=  0.15635840)
    37a ->  40a  :     0.464685 (c= -0.68167837)
    37a ->  41a  :     0.026523 (c=  0.16285907)

STATE  5:  E=   0.245998 au      6.694 eV    53990.3 cm**-1 <S**2> =   0.000000
    33a ->  39a  :     0.681338 (c= -0.82543205)
    33a ->  41a  :     0.033323 (c=  0.18254552)
    34a ->  39a  :     0.077948 (c= -0.27919140)
    34a ->  40a  :     0.074198 (c= -0.27239305)
    34a ->  41a  :     0.032694 (c=  0.18081502)
    37a ->  40a  :     0.048861 (c= -0.22104504)
    37a ->  41a  :     0.026425 (c= -0.16255645)
    37a ->  46a  :     0.012830 (c=  0.11326910)

STATE  6:  E=   0.261358 au      7.112 eV    57361.5 cm**-1 <S**2> =   0.000000
    32a ->  42a  :     0.018164 (c=  0.13477515)
    38a ->  42a  :     0.951314 (c= -0.97535334)

STATE  7:  E=   0.263150 au      7.161 eV    57754.8 cm**-1 <S**2> =   0.000000
    35a ->  39a  :     0.011887 (c=  0.10902736)
    36a ->  39a  :     0.683904 (c= -0.82698509)
    38a ->  40a  :     0.154984 (c= -0.39368046)
    38a ->  41a  :     0.084341 (c=  0.29041580)

STATE  8:  E=   0.265230 au      7.217 eV    58211.2 cm**-1 <S**2> =   0.000000
    35a ->  39a  :     0.148953 (c=  0.38594420)
    36a ->  39a  :     0.149044 (c= -0.38606256)
    37a ->  42a  :     0.011581 (c= -0.10761511)
    38a ->  39a  :     0.010135 (c= -0.10067306)
    38a ->  40a  :     0.496436 (c=  0.70458207)
    38a ->  41a  :     0.120567 (c= -0.34722753)

STATE  9:  E=   0.269687 au      7.339 eV    59189.3 cm**-1 <S**2> =   0.000000
    33a ->  39a  :     0.061039 (c=  0.24705978)
    34a ->  39a  :     0.658671 (c= -0.81158545)
    34a ->  41a  :     0.040765 (c= -0.20190359)
    37a ->  39a  :     0.192009 (c= -0.43818850)
    37a ->  40a  :     0.027448 (c= -0.16567333)

STATE 10:  E=   0.273787 au      7.450 eV    60089.4 cm**-1 <S**2> =   0.000000
    32a ->  40a  :     0.015023 (c=  0.12257028)
    35a ->  39a  :     0.412275 (c=  0.64208645)
    36a ->  39a  :     0.060777 (c=  0.24652913)
    38a ->  40a  :     0.011425 (c=  0.10688653)
    38a ->  41a  :     0.438742 (c=  0.66237571)


-----------------------------
TD-DFT/TDA-EXCITATION SPECTRA
-----------------------------

Center of mass = ( -3.6852, -2.3901, -0.1228)
Calculating the Dipole integrals                  ... done
Transforming integrals                            ... done
Calculating the Linear Momentum integrals         ... done
Transforming integrals                            ... done
Calculating angular momentum integrals            ... done
Transforming integrals                            ... done

-----------------------------------------------------------------------------
         ABSORPTION SPECTRUM VIA TRANSITION ELECTRIC DIPOLE MOMENTS
-----------------------------------------------------------------------------
State   Energy    Wavelength  fosc         T2        TX        TY        TZ  
        (cm-1)      (nm)                 (au**2)    (au)      (au)      (au) 
-----------------------------------------------------------------------------
   1   43042.5    232.3   0.000406048   0.00311   0.00129  -0.00674  -0.05530
   2   44295.4    225.8   0.212696701   1.58080  -0.63342   1.08285  -0.08379
   3   53073.4    188.4   0.003473866   0.02155  -0.13322   0.06133  -0.00617
   4   53137.5    188.2   0.000449049   0.00278   0.00490  -0.00659  -0.05210
   5   53990.3    185.2   0.002316119   0.01412   0.00098   0.00987   0.11842
   6   57361.5    174.3   0.000784461   0.00450   0.00284  -0.00507  -0.06685
   7   57754.8    173.1   0.099501843   0.56718   0.39012   0.64198  -0.05335
[...]
Calculating rho(r) on the grid         ... done
Building xc-kernel on the grid         ... done
Building xc 3rd derivative on the grid      ... done
                *** TD-DFT GRADIENT CALCULATION INITIALIZED ***

-------------------
TD-DFT/TDA GRADIENT
-------------------

Reference wavefunction             ... RHF
State of interest                  ... 1
Basis dimension                    ... 174
DFT-XC contribution needed         ... YES
RI-approximation                   ... ON
CIS-vectors being read from        ... xanthine_opt_followiroot_5.cis

 => Number of Vectors found: 10
 => Orbital Window: 11...38 -> 39...173

Reading the CIS file                     ... done
Norm of the CI vector                    ... 1.000000000
Making the CIS (pseudo)densities         ... done
Making operators G(D) and Q(T)           ... done
Transforming the Fock operators          ... done
Making the frozen-core relaxed density   ... done
Constructing the G(H) operator           ... done
Transforming the G(H) operator           ... done
Calculating the CIS Lagrangian           ... done
Solving the Z-vector equations           ... done
Finalizing the relaxed density           ... done
Storing the relaxed density              ... done
Constructing the G(Z) operator           ... done
Transforming the G(Z) operator           ... done
Making the W-matrix                      ... done
Finalizing the W-matrix                  ... done
Transforming the W-matrix                ... done
Nuclear repulsion gradient               ... done
One-Electron gradient                    ... done
Prescreening matrices                    ... done
COSX-gradient                            ... done
Coulomb gradient (RI)                    ... done
Exchange-Correlation gradient            ... done

                 ---------------------------
                 EXCITED STATE GRADIENT DONE
                 ---------------------------

------------------
CARTESIAN GRADIENT
------------------

   1   N   :   -0.007327640    0.011859397    0.001154058
   2   C   :    0.011363478   -0.008812829    0.000624127
   3   C   :   -0.003124972    0.006692408    0.002015014
   4   C   :    0.002287581   -0.001771916    0.000039247
   5   N   :   -0.017130081    0.009526215    0.004452729
   6   C   :    0.017432958   -0.008934912   -0.010470076
   7   N   :    0.008816654    0.005420896    0.001584064
   8   C   :   -0.007281528    0.001367615   -0.002571266
   9   N   :    0.000582572   -0.005808282    0.000332137
  10   H   :    0.000310605    0.000979565   -0.000716491
  11   H   :    0.002005357   -0.003030381    0.002749101
  12   H   :   -0.001842076    0.000039354   -0.000062533
  13   O   :   -0.006386985   -0.004589385   -0.000009863
  14   O   :    0.000726744    0.000372812    0.000673332
  15   H   :   -0.000354045   -0.003252652    0.000169190

Difference to translation invariance:
           :    0.0000786213    0.0000579032   -0.0000372311

Difference to rotation invariance:
           :    0.0002588622   -0.0000186033   -0.0002603707

Norm of the cartesian gradient     ...    0.0408898522
RMS gradient                       ...    0.0060954993
MAX gradient                       ...    0.0174329578

------------------------------------------------------------------------------
                  RELAXED CIS/TDA DENSITY POPULATION ANALYSIS
                                   IROOT 1
------------------------------------------------------------------------------
------------------------------------------------------------------------------
                           ORCA POPULATION ANALYSIS
------------------------------------------------------------------------------
Input electron density              ... xanthine_opt_followiroot_5.cisp
BaseName (.gbw .S,...)              ... xanthine_opt_followiroot_5

-------
TIMINGS
-------

Total TD-DFT gradient time         ...       13.012 sec

Fock matrix formation       ....       2.512 sec  ( 19.3%)
  Coulomb formation         ....       2.206 sec  ( 87.8% of F)
  RI-J                      ....       0.485 sec  ( 19.3% of F)
  Chain of spheres X        ....       1.719 sec  ( 68.4% of F)
  XC integration            ....       0.306 sec  ( 12.2% of F)
Z-vector equation           ....       5.331 sec  ( 41.0%)
One electron gradient       ....       0.176 sec  (  1.4%)
Prescreening matrices       ....       0.214 sec  (  1.6%)
RI-J Coulomb gradient       ....       0.492 sec  (  3.8%)
COSX gradient               ....       2.050 sec  ( 15.8%)
XC gradient                 ....       1.576 sec  ( 12.1%)

Maximum memory used throughout the entire SCFGRAD-calculation: 167.4 MB
------------------------------------------------------------------------------
                         ORCA GEOMETRY RELAXATION STEP
------------------------------------------------------------------------------

Reading the OPT-File                    .... done
Getting information on internals        .... done
Copying old internal coords+grads       .... done
Making the new internal coordinates     .... (new redundants).... done
Validating the new internal coordinates .... (new redundants).... done
Calculating the B-matrix                .... done
Calculating the G,G- and P matrices     .... done
Transforming gradient to internals      .... done
Projecting the internal gradient        .... done
Number of atoms                         ....  15
Number of internal coordinates          ....  77
Current Energy                          ....  -562.072390980 Eh
Current gradient norm                   ....     0.040889852 Eh/bohr
Maximum allowed component of the step   ....  0.300
Current trust radius                    ....  0.300
Resetting Hessian after 50 BFGS Update Steps....
Build internal Hessian                  .... (Almloef) done
Updating Hessian with the last 5 steps  .... done
Forming the augmented Hessian           .... done
Diagonalizing the augmented Hessian     .... done
Last element of RFO vector              ....  0.953512423
Lowest eigenvalues of augmented Hessian:
 -0.003721482  0.008555211  0.015751335  0.019776230  0.024473691
Length of the computed step             ....  0.316045920
Warning: the length of the step is outside the trust region - taking restricted step instead
The input lambda is                     ....    -0.003721
   iter:   1  x=   -0.004643  g=   10.730291 f(x)=     0.009885
   iter:   2  x=   -0.004727  g=    9.128363 f(x)=     0.000766
   iter:   3  x=   -0.004727  g=    8.999498 f(x)=     0.000005
   iter:   4  x=   -0.004727  g=    8.998582 f(x)=     0.000000
   iter:   5  x=   -0.004727  g=    8.998582 f(x)=    -0.000000
The output lambda is                    ....    -0.004727 (5 iterations)
The final length of the internal step   ....  0.300000000
Converting the step to cartesian space:
 Initial RMS(Int)=    0.0341881729
Transforming coordinates:
 Iter   0:  RMS(Cart)=    0.0622521379 RMS(Int)=    1.2323040131
 Iter   1:  RMS(Cart)=    0.0024840560 RMS(Int)=    0.0014770619
 Iter   2:  RMS(Cart)=    0.0001333691 RMS(Int)=    0.0000701737
 Iter   3:  RMS(Cart)=    0.0000108906 RMS(Int)=    0.0000070321
 Iter   4:  RMS(Cart)=    0.0000007373 RMS(Int)=    0.0000004377
 Iter   5:  RMS(Cart)=    0.0000000573 RMS(Int)=    0.0000000397
done
Storing new coordinates                 .... done

                                .--------------------.
          ----------------------|Geometry convergence|-------------------------
          Item                value                   Tolerance       Converged
          ---------------------------------------------------------------------
          Energy change      -0.0041871894            0.0000050000      NO
          RMS gradient        0.0030618533            0.0001000000      NO
          MAX gradient        0.0143271646            0.0003000000      NO
          RMS step            0.0341881729            0.0020000000      NO
          MAX step            0.1020200834            0.0040000000      NO
          ........................................................
          Max(Bonds)      0.0338      Max(Angles)    3.42
          Max(Dihed)        5.85      Max(Improp)    0.00
          ---------------------------------------------------------------------

The optimization has not yet converged - more geometry cycles are needed


    ---------------------------------------------------------------------------
                         Redundant Internal Coordinates
                            (Angstroem and degrees)

        Definition                    Value    dE/dq     Step     New-Value
    ----------------------------------------------------------------------------
     1. B(C   1,N   0)                1.3573 -0.003570  0.0007    1.3580   
     2. B(C   2,C   1)                1.4717 -0.005730  0.0140    1.4857   
     3. B(C   3,C   2)                1.4071 -0.000492  0.0032    1.4103   
     4. B(N   4,C   3)                1.3345  0.002568 -0.0161    1.3185   
     5. B(C   5,N   4)                1.5109 -0.014327  0.0338    1.5447   
     6. B(C   5,N   0)                1.4875  0.001595  0.0149    1.5023   
     7. B(N   6,C   3)                1.3770  0.001490  0.0007    1.3777   
     8. B(C   7,N   6)                1.2999 -0.008067  0.0123    1.3122   
     9. B(N   8,C   7)                1.3769 -0.002889  0.0282    1.4050   
    10. B(N   8,C   2)                1.3450 -0.002645 -0.0101    1.3349   
    11. B(H   9,N   0)                1.0139  0.000389 -0.0056    1.0083   
    12. B(H  10,N   4)                1.0204  0.002673 -0.0048    1.0156   
    13. B(H  11,N   8)                1.0135 -0.000712  0.0020    1.0155   
    14. B(O  12,C   1)                1.2170 -0.005517  0.0010    1.2180   
    15. B(O  13,C   5)                1.2484  0.000634 -0.0183    1.2301   
    16. B(H  14,C   7)                1.0880  0.000029 -0.0004    1.0877   
    17. A(C   5,N   0,H   9)          118.69  0.004756   -1.96    116.72   
    18. A(C   1,N   0,C   5)          117.62 -0.006826    2.01    119.63   
    19. A(C   1,N   0,H   9)          115.85  0.002067   -0.61    115.24   
    20. A(N   0,C   1,O  12)          126.53 -0.008544    2.21    128.74   
    21. A(N   0,C   1,C   2)          110.91  0.004093   -0.49    110.43   
    22. A(C   2,C   1,O  12)          122.48  0.004495   -1.93    120.54   
    23. A(C   3,C   2,N   8)          104.83 -0.001586    1.30    106.13   
    24. A(C   1,C   2,N   8)          129.72  0.001503   -1.15    128.58   
    25. A(C   1,C   2,C   3)          125.19  0.000129   -0.12    125.07   
    26. A(C   2,C   3,N   6)          110.70 -0.001004   -0.36    110.34   
    27. A(C   2,C   3,N   4)          116.88 -0.001874    0.56    117.44   
    28. A(N   4,C   3,N   6)          132.40  0.002906   -0.12    132.28   
    29. A(C   5,N   4,H  10)          120.45  0.002414    0.06    120.51   
    30. A(C   3,N   4,H  10)          118.17 -0.002067    1.97    120.14   
    31. A(C   3,N   4,C   5)          112.92 -0.001171    3.42    116.35   
    32. A(N   0,C   5,N   4)          106.06  0.006416   -2.51    103.55   
    33. A(N   4,C   5,O  13)          110.28 -0.002584    0.59    110.87   
    34. A(N   0,C   5,O  13)          119.84 -0.002348    0.44    120.28   
    35. A(C   3,N   6,C   7)          103.97  0.000023    0.47    104.44   
    36. A(N   6,C   7,H  14)          123.62 -0.004102    1.01    124.63   
    37. A(N   6,C   7,N   8)          113.44  0.001516   -0.90    112.54   
    38. A(N   8,C   7,H  14)          122.94  0.002574   -0.11    122.82   
    39. A(C   2,N   8,C   7)          107.05  0.001039   -0.51    106.54   
    40. A(C   7,N   8,H  11)          129.18  0.001107    0.10    129.28   
    41. A(C   2,N   8,H  11)          123.75 -0.002151    0.39    124.14   
    42. D(O  12,C   1,N   0,H   9)     -6.81 -0.000112   -1.56     -8.36   
    43. D(C   2,C   1,N   0,C   5)     27.58 -0.002755    4.53     32.11   
    44. D(C   2,C   1,N   0,H   9)    176.41 -0.001194    3.87    180.28   
    45. D(O  12,C   1,N   0,C   5)   -155.63 -0.001673   -0.89   -156.53   
    46. D(C   3,C   2,C   1,O  12)   -170.91 -0.001844    1.23   -169.68   
    47. D(N   8,C   2,C   1,N   0)    179.39 -0.000802   -3.28    176.11   
    48. D(C   3,C   2,C   1,N   0)      6.03 -0.001305   -4.12      1.90   
    49. D(N   8,C   2,C   1,O  12)      2.45 -0.001341    2.07      4.52   
    50. D(N   6,C   3,C   2,N   8)     -0.13 -0.000160    0.17      0.03   
    51. D(N   6,C   3,C   2,C   1)    174.59  0.000393    0.73    175.32   
    52. D(N   4,C   3,C   2,N   8)   -178.79 -0.001252   -0.96   -179.75   
    53. D(N   4,C   3,C   2,C   1)     -4.06 -0.000699   -0.40     -4.46   
    54. D(H  10,N   4,C   3,C   2)   -178.15  0.002493   -2.83   -180.98   
    55. D(C   5,N   4,C   3,N   6)    151.84  0.000626    2.76    154.60   
    56. D(C   5,N   4,C   3,C   2)    -29.86  0.001920    4.20    -25.67   
    57. D(H  10,N   4,C   3,N   6)      3.56  0.001199   -4.27     -0.71   
    58. D(O  13,C   5,N   4,H  10)     74.91 -0.000956    3.05     77.96   
    59. D(N   0,C   5,N   4,H  10)   -153.92 -0.001016    2.08   -151.84   
    60. D(N   0,C   5,N   4,C   3)     58.60  0.001186   -5.85     52.75   
    61. D(O  13,C   5,N   0,H   9)    -81.38  0.000007    0.59    -80.79   
    62. D(O  13,C   5,N   0,C   1)     66.54  0.000621    0.30     66.84   
    63. D(O  13,C   5,N   4,C   3)    -72.58  0.001245   -4.87    -77.44   
    64. D(N   4,C   5,N   0,H   9)    153.10 -0.000470    1.88    154.98   
    65. D(N   4,C   5,N   0,C   1)    -58.97  0.000144    1.59    -57.39   
    66. D(C   7,N   6,C   3,N   4)    177.97  0.000944    1.65    179.62   
    67. D(C   7,N   6,C   3,C   2)     -0.40 -0.000273    0.23     -0.17   
    68. D(H  14,C   7,N   6,C   3)    179.88 -0.000200    0.35    180.23   
    69. D(N   8,C   7,N   6,C   3)      0.80  0.000623   -0.56      0.24   
    70. D(H  11,N   8,C   2,C   1)      4.85 -0.000167   -1.32      3.53   
    71. D(C   7,N   8,C   2,C   3)      0.59  0.000497   -0.49      0.10   
    72. D(C   7,N   8,C   2,C   1)   -173.80  0.000022   -1.18   -174.99   
    73. D(H  11,N   8,C   7,H  14)      1.43  0.000378   -0.04      1.39   
    74. D(H  11,N   8,C   7,N   6)   -179.48 -0.000509    0.84   -178.64   
    75. D(C   2,N   8,C   7,H  14)    179.99  0.000116   -0.22    179.77   
    76. D(C   2,N   8,C   7,N   6)     -0.92 -0.000770    0.67     -0.25   
    77. D(H  11,N   8,C   2,C   3)    179.24  0.000308   -0.63    178.61   
    ----------------------------------------------------------------------------




    ----------------------------------------------------------------------------
                                  WARNING !!!
       The optimization did not converge but reached the maximum number of
       optimization cycles.
       Please check your results very carefully.
    ----------------------------------------------------------------------------



                            ***************************************
                            *     ORCA property calculations      *
                            ***************************************

                                    ---------------------
                                    Active property flags
                                    ---------------------
   (+) Dipole Moment


------------------------------------------------------------------------------
                       ORCA ELECTRIC PROPERTIES CALCULATION
------------------------------------------------------------------------------

Dipole Moment Calculation                       ... on
Quadrupole Moment Calculation                   ... off
Polarizability Calculation                      ... off
GBWName                                         ... xanthine_opt_followiroot_5.gbw
Electron density                                ... xanthine_opt_followiroot_5.scfp
The origin for moment calculation is the CENTER OF MASS  = (-3.592733, -2.376652 -0.010743)

-------------
DIPOLE MOMENT
-------------
                                X             Y             Z
Electronic contribution:     -3.50770      -0.32246       1.45051
Nuclear contribution   :      2.46989      -0.27476      -0.67294
                        -----------------------------------------
Total Dipole Moment    :     -1.03782      -0.59722       0.77756
                        -----------------------------------------
Magnitude (a.u.)       :      1.42770
Magnitude (Debye)      :      3.62893



--------------------
Rotational spectrum 
--------------------
 
Rotational constants in cm-1:     0.059577     0.041853     0.027226 
Rotational constants in MHz :  1786.077802  1254.718346   816.217577 

 Dipole components along the rotational axes: 
x,y,z [a.u.] :    -0.943020    -0.894920     0.590058 
x,y,z [Debye]:    -2.396965    -2.274706     1.499810 

 

                        *** CIS RELAXED DENSITY ***

------------------------------------------------------------------------------
                       ORCA ELECTRIC PROPERTIES CALCULATION
------------------------------------------------------------------------------

Dipole Moment Calculation                       ... on
Quadrupole Moment Calculation                   ... off
Polarizability Calculation                      ... off
GBWName                                         ... xanthine_opt_followiroot_5.gbw
Electron density                                ... xanthine_opt_followiroot_5.cisp
The origin for moment calculation is the CENTER OF MASS  = (-3.592733, -2.376652 -0.010743)

-------------
DIPOLE MOMENT
-------------
                                X             Y             Z
Electronic contribution:     -1.37949      -0.17410       0.94449
Nuclear contribution   :      2.46989      -0.27476      -0.67294
                        -----------------------------------------
Total Dipole Moment    :      1.09040      -0.44886       0.27155
                        -----------------------------------------
Magnitude (a.u.)       :      1.21003
Magnitude (Debye)      :      3.07566



--------------------
Rotational spectrum 
--------------------
 
Rotational constants in cm-1:     0.059577     0.041853     0.027226 
Rotational constants in MHz :  1786.077802  1254.718346   816.217577 

 Dipole components along the rotational axes: 
x,y,z [a.u.] :     1.139519    -0.272197     0.302636 
x,y,z [Debye]:     2.896427    -0.691869     0.769241 

 

Timings for individual modules:

Sum of individual times         ...     1607.254 sec (=  26.788 min)
GTO integral calculation        ...       43.146 sec (=   0.719 min)   2.7 %
SCF iterations                  ...      534.259 sec (=   8.904 min)  33.2 %
CIS module                      ...      372.700 sec (=   6.212 min)  23.2 %
SCF Gradient evaluation         ...      655.200 sec (=  10.920 min)  40.8 %
Geometry relaxation             ...        1.949 sec (=   0.032 min)   0.1 %
                             ****ORCA TERMINATED NORMALLY****
TOTAL RUN TIME: 0 days 0 hours 27 minutes 17 seconds 17 msec
Filesystem                                  Size  Used Avail Use% Mounted on
devtmpfs                                    252G     0  252G   0% /dev
tmpfs                                       252G     0  252G   0% /dev/shm
tmpfs                                       252G  1.7G  250G   1% /run
tmpfs                                       252G     0  252G   0% /sys/fs/cgroup
/dev/mapper/rl_cccuam-root                   46G   15G   29G  33% /
/dev/mapper/rl_cccuam-var                    19G  915M   17G   6% /var
/dev/nvme0n1p2                              1.8G  277M  1.5G  16% /boot
/dev/mapper/rl_cccuam-temporal              1.7T   93G  1.5T   6% /temporal
/dev/nvme0n1p1                              952M  5.8M  946M   1% /boot/efi
/dev/mapper/rl_cccuam-tmp                   9.1G  104K  8.6G   1% /tmp
192.168.5.2@o2ib:192.168.5.3@o2ib:/LUSTREB  923T  353T  524T  41% /lustre
