panoramix.ccc.uam.es
/temporal/fmatar/slurm_tmp_6272782

                                 *****************
                                 * O   R   C   A *
                                 *****************

                                            #,                                       
                                            ###                                      
                                            ####                                     
                                            #####                                    
                                            ######                                   
                                           ########,                                 
                                     ,,################,,,,,                         
                               ,,#################################,,                 
                          ,,##########################################,,             
                       ,#########################################, ''#####,          
                    ,#############################################,,   '####,        
                  ,##################################################,,,,####,       
                ,###########''''           ''''###############################       
              ,#####''   ,,,,##########,,,,          '''####'''          '####       
            ,##' ,,,,###########################,,,                        '##       
           ' ,,###''''                  '''############,,,                           
         ,,##''                                '''############,,,,        ,,,,,,###''
      ,#''                                            '''#######################'''  
     '                                                          ''''####''''         
             ,#######,   #######,   ,#######,      ##                                
            ,#'     '#,  ##    ##  ,#'     '#,    #''#        ######   ,####,        
            ##       ##  ##   ,#'  ##            #'  '#       #        #'  '#        
            ##       ##  #######   ##           ,######,      #####,   #    #        
            '#,     ,#'  ##    ##  '#,     ,#' ,#      #,         ##   #,  ,#        
             '#######'   ##     ##  '#######'  #'      '#     #####' # '####'        



                  #######################################################
                  #                        -***-                        #
                  #          Department of theory and spectroscopy      #
                  #    Directorship and core code : Frank Neese         #
                  #        Max Planck Institute fuer Kohlenforschung    #
                  #                Kaiser Wilhelm Platz 1               #
                  #                 D-45470 Muelheim/Ruhr               #
                  #                      Germany                        #
                  #                                                     #
                  #                  All rights reserved                #
                  #                        -***-                        #
                  #######################################################


                         Program Version 5.0.3 -  RELEASE  -


 With contributions from (in alphabetic order):
   Daniel Aravena         : Magnetic Suceptibility
   Michael Atanasov       : Ab Initio Ligand Field Theory (pilot matlab implementation)
   Alexander A. Auer      : GIAO ZORA, VPT2 properties, NMR spectrum
   Ute Becker             : Parallelization
   Giovanni Bistoni       : ED, misc. LED, open-shell LED, HFLD
   Martin Brehm           : Molecular dynamics
   Dmytro Bykov           : SCF Hessian
   Vijay G. Chilkuri      : MRCI spin determinant printing, contributions to CSF-ICE
   Dipayan Datta          : RHF DLPNO-CCSD density
   Achintya Kumar Dutta   : EOM-CC, STEOM-CC
   Dmitry Ganyushin       : Spin-Orbit,Spin-Spin,Magnetic field MRCI
   Miquel Garcia          : C-PCM and meta-GGA Hessian, CC/C-PCM, Gaussian charge scheme
   Yang Guo               : DLPNO-NEVPT2, F12-NEVPT2, CIM, IAO-localization
   Andreas Hansen         : Spin unrestricted coupled pair/coupled cluster methods
   Benjamin Helmich-Paris : MC-RPA, TRAH-SCF, COSX integrals
   Lee Huntington         : MR-EOM, pCC
   Robert Izsak           : Overlap fitted RIJCOSX, COSX-SCS-MP3, EOM
   Marcus Kettner         : VPT2
   Christian Kollmar      : KDIIS, OOCD, Brueckner-CCSD(T), CCSD density, CASPT2, CASPT2-K
   Simone Kossmann        : Meta GGA functionals, TD-DFT gradient, OOMP2, MP2 Hessian
   Martin Krupicka        : Initial AUTO-CI
   Lucas Lang             : DCDCAS
   Marvin Lechner         : AUTO-CI (C++ implementation), FIC-MRCC
   Dagmar Lenk            : GEPOL surface, SMD
   Dimitrios Liakos       : Extrapolation schemes; Compound Job, initial MDCI parallelization
   Dimitrios Manganas     : Further ROCIS development; embedding schemes
   Dimitrios Pantazis     : SARC Basis sets
   Anastasios Papadopoulos: AUTO-CI, single reference methods and gradients
   Taras Petrenko         : DFT Hessian,TD-DFT gradient, ASA, ECA, R-Raman, ABS, FL, XAS/XES, NRVS
   Peter Pinski           : DLPNO-MP2, DLPNO-MP2 Gradient
   Christoph Reimann      : Effective Core Potentials
   Marius Retegan         : Local ZFS, SOC
   Christoph Riplinger    : Optimizer, TS searches, QM/MM, DLPNO-CCSD(T), (RO)-DLPNO pert. Triples
   Tobias Risthaus        : Range-separated hybrids, TD-DFT gradient, RPA, STAB
   Michael Roemelt        : Original ROCIS implementation
   Masaaki Saitow         : Open-shell DLPNO-CCSD energy and density
   Barbara Sandhoefer     : DKH picture change effects
   Avijit Sen             : IP-ROCIS
   Kantharuban Sivalingam : CASSCF convergence, NEVPT2, FIC-MRCI
   Bernardo de Souza      : ESD, SOC TD-DFT
   Georgi Stoychev        : AutoAux, RI-MP2 NMR, DLPNO-MP2 response
   Willem Van den Heuvel  : Paramagnetic NMR
   Boris Wezisla          : Elementary symmetry handling
   Frank Wennmohs         : Technical directorship


 We gratefully acknowledge several colleagues who have allowed us to
 interface, adapt or use parts of their codes:
   Stefan Grimme, W. Hujo, H. Kruse, P. Pracht,  : VdW corrections, initial TS optimization,
                  C. Bannwarth, S. Ehlert          DFT functionals, gCP, sTDA/sTD-DF
   Ed Valeev, F. Pavosevic, A. Kumar             : LibInt (2-el integral package), F12 methods
   Garnet Chan, S. Sharma, J. Yang, R. Olivares  : DMRG
   Ulf Ekstrom                                   : XCFun DFT Library
   Mihaly Kallay                                 : mrcc  (arbitrary order and MRCC methods)
   Jiri Pittner, Ondrej Demel                    : Mk-CCSD
   Frank Weinhold                                : gennbo (NPA and NBO analysis)
   Christopher J. Cramer and Donald G. Truhlar   : smd solvation model
   Lars Goerigk                                  : TD-DFT with DH, B97 family of functionals
   V. Asgeirsson, H. Jonsson                     : NEB implementation
   FAccTs GmbH                                   : IRC, NEB, NEB-TS, DLPNO-Multilevel, CI-OPT
                                                   MM, QMMM, 2- and 3-layer-ONIOM, Crystal-QMMM,
                                                   LR-CPCM, SF, NACMEs, symmetry and pop. for TD-DFT,
                                                   nearIR, NL-DFT gradient (VV10), updates on ESD,
                                                   ML-optimized integration grids
   S Lehtola, MJT Oliveira, MAL Marques          : LibXC Library
   Liviu Ungur et al                             : ANISO software


 Your calculation uses the libint2 library for the computation of 2-el integrals
 For citations please refer to: http://libint.valeyev.net

 Your ORCA version has been built with support for libXC version: 5.1.0
 For citations please refer to: https://tddft.org/programs/libxc/

 This ORCA versions uses:
   CBLAS   interface :  Fast vector & matrix operations
   LAPACKE interface :  Fast linear algebra routines
   SCALAPACK package :  Parallel linear algebra routines
   Shared memory     :  Shared parallel matrices
   BLAS/LAPACK       :  OpenBLAS 0.3.15  USE64BITINT DYNAMIC_ARCH NO_AFFINITY Sandybridge SINGLE_THREADED
        Core in use  :  Sandybridge
   Copyright (c) 2011-2014, The OpenBLAS Project


Your calculation utilizes the atom-pairwise dispersion correction
with the zero-damping scheme (D30)
Cite in your paper:
S.Grimme, J.Antony, S.Ehrlich and H.Krieg, J.Chem.Phys., 132, (2010), 154104 
   

XCFun DFT library Copyright 2009-2010 Ulf Ekstrom and contributors.
See http://admol.org/xcfun for more information.
This is free software; see the source code for copying conditions.
There is ABSOLUTELY NO WARRANTY; not even for MERCHANTABILITY or FITNESS FOR A PARTICULAR PURPOSE.
For details see the documentation.
Scientific users of this library should cite U. Ekstrom, L. Visscher, R. Bast, A. J. Thorvaldsen and K. Ruud;
J.Chem.Theor.Comp. 2010, DOI: 10.1021/ct100117s
XCFun Version 0.99 

================================================================================

----- Orbital basis set information -----
Your calculation utilizes the basis: cc-pVDZ 
       H, B-Ne : Obtained from the ccRepo (grant-hill.group.shef.ac.uk/ccrepo) Feb. 2017
                 T. H. Dunning, Jr., J. Chem. Phys. 90, 1007 (1989)
            He : Obtained from the ccRepo (grant-hill.group.shef.ac.uk/ccrepo) Feb. 2017
                 D. E. Woon, T. H. Dunning, Jr., J. Chem. Phys. 100, 2975 (1994)
  Li-Be, Na-Mg : Obtained from the ccRepo (grant-hill.group.shef.ac.uk/ccrepo) Feb. 2017
                 B. P. Prascher, D. E. Woon, K. A. Peterson, T. H. Dunning, Jr., A. K. Wilson, Theor. Chem. Acc. 128, 69 (2011)
         Al-Ar : Obtained from the ccRepo (grant-hill.group.shef.ac.uk/ccrepo) Feb. 2017
                 D. E. Woon, T. H. Dunning, Jr., J. Chem. Phys. 98, 1358 (1993)
            Ca : Obtained from the Peterson Research Group Website (tyr0.chem.wsu.edu/~kipeters) Feb. 2017
                 J. Koput, K. A. Peterson, J. Phys. Chem. 106, 9595 (2002)
         Sc-Zn : Obtained from the ccRepo (grant-hill.group.shef.ac.uk/ccrepo) Feb. 2017
                 N. B. Balabanov, K. A. Peterson, J. Chem. Phys. 123, 064107 (2005)
                 N. B. Balabanov, K. A. Peterson, J. Chem. Phys. 125, 074110 (2006)
         Ga-Kr : Obtained from the ccRepo (grant-hill.group.shef.ac.uk/ccrepo) Feb. 2017
                 A. K. Wilson, D. E. Woon, K. A. Peterson, T. H. Dunning, Jr., J. Chem. Phys. 110, 7667 (1999)

----- AuxJ basis set information -----
Your calculation utilizes the auxiliary basis: def2/J
   F. Weigend, Phys. Chem. Chem. Phys. 8, 1057 (2006).

================================================================================
                                        WARNINGS
                       Please study these warnings very carefully!
================================================================================

INFO   : Checking CIS options ...

WARNING: Geometry Optimization
  ===> : Switching off AutoStart
         For restart on a previous wavefunction, please use MOREAD

WARNING: CIS/ROCIS methods need fully converged wavefunctions
  ===> : Setting SCFConvForced true
         You can overwrite this default with %scf ConvForced false 


INFO   : the flag for use of the SHARK integral package has been found!

================================================================================
                                       INPUT FILE
================================================================================
NAME = calcyn_opt_iroot_6_recook.in
|  1> ! wB97x-D3 cc-pvdz opt 
|  2> 
|  3> %tddft
|  4>  nroots 10
|  5>  tda TRUE
|  6>  IRoot 6
|  7> end
|  8> 
|  9> *xyz 0 1 
| 10>   C      -1.994061      0.749544      0.015357
| 11>   C      -2.882411      1.820071      0.069168
| 12>   C      -0.535106      0.756893      0.019474
| 13>   C      -2.331986     -0.627698     -0.060139
| 14>   C      -4.307746      1.902234      0.043768
| 15>   O      -2.367346      3.071906      0.211635
| 16>   C      -0.138666     -0.580108     -0.033062
| 17>   C       0.439888      1.756053      0.077441
| 18>   O      -1.229689     -1.421561     -0.070656
| 19>   O      -3.474730     -1.159220     -0.142701
| 20>   C      -4.670732      3.232471      0.171931
| 21>   O      -5.153826      0.871817     -0.061472
| 22>   C      -3.431503      3.987079      0.272814
| 23>   C       1.182817     -0.993894     -0.022748
| 24>   C       1.783855      1.361725      0.094541
| 25>   C      -6.011660      3.818241      0.209514
| 26>   O      -3.175507      5.162833      0.384298
| 27>   C       2.151351      0.014894      0.046965
| 28>   C      -7.157615      3.023848      0.022788
| 29>   C      -6.190270      5.191828      0.439250
| 30>   C      -8.437555      3.585219      0.089500
| 31>   C      -7.473460      5.747501      0.484056
| 32>   C      -8.604167      4.948696      0.316699
| 33>   H       0.152741      2.806730      0.104783
| 34>   H      -4.670913      0.018169     -0.133403
| 35>   H       1.444041     -2.051465     -0.057096
| 36>   H       2.559594      2.128749      0.128143
| 37>   H       3.207129     -0.260486      0.053049
| 38>   H      -7.051081      1.960996     -0.187944
| 39>   H      -5.314938      5.822968      0.595182
| 40>   H      -9.307743      2.940784     -0.052502
| 41>   H      -7.581712      6.818530      0.666506
| 42>   H      -9.603764      5.384265      0.362244
| 43> *
| 44> 
| 45>                          ****END OF INPUT****
================================================================================

                       *****************************
                       * Geometry Optimization Run *
                       *****************************

Geometry optimization settings:
Update method            Update   .... BFGS
Choice of coordinates    CoordSys .... Z-matrix Internals
Initial Hessian          InHess   .... Almoef's Model

Convergence Tolerances:
Energy Change            TolE     ....  5.0000e-06 Eh
Max. Gradient            TolMAXG  ....  3.0000e-04 Eh/bohr
RMS Gradient             TolRMSG  ....  1.0000e-04 Eh/bohr
Max. Displacement        TolMAXD  ....  4.0000e-03 bohr
RMS Displacement         TolRMSD  ....  2.0000e-03 bohr
Strict Convergence                ....  False
------------------------------------------------------------------------------
                        ORCA OPTIMIZATION COORDINATE SETUP
------------------------------------------------------------------------------

The optimization will be done in new redundant internal coordinates
Making redundant internal coordinates   ...  (new redundants) done
Evaluating the initial hessian          ...  (Almloef) done
Evaluating the coordinates              ...  done
Calculating the B-matrix                .... done
Calculating the G-matrix                .... done
Diagonalizing the G-matrix              .... done
Small eigenvalue found = 3.041e-03
Small eigenvalue found = 1.400e-02
Small eigenvalue found = 1.693e-02
The first mode is                       ....   86
The number of degrees of freedom        ....   93

    -----------------------------------------------------------------
                    Redundant Internal Coordinates


    -----------------------------------------------------------------
         Definition                    Initial Value    Approx d2E/dq
    -----------------------------------------------------------------
      1. B(C   1,C   0)                  1.3922         0.619875   
      2. B(C   2,C   0)                  1.4590         0.484938   
      3. B(C   3,C   0)                  1.4201         0.559388   
      4. B(C   4,C   1)                  1.4279         0.543536   
      5. B(O   5,C   1)                  1.3611         0.622204   
      6. B(C   6,C   2)                  1.3955         0.612238   
      7. B(C   7,C   2)                  1.3972         0.608386   
      8. B(O   8,C   6)                  1.3783         0.584114   
      9. B(O   8,C   3)                  1.3585         0.628363   
     10. B(O   9,C   3)                  1.2630         0.892234   
     11. B(C  10,C   4)                  1.3848         0.636809   
     12. B(O  11,C   4)                  1.3374         0.678840   
     13. B(C  12,C  10)                  1.4544         0.493153   
     14. B(C  12,O   5)                  1.4049         0.529810   
     15. B(C  13,C   6)                  1.3848         0.636871   
     16. B(C  14,C   7)                  1.4007         0.600655   
     17. B(C  15,C  10)                  1.4638         0.476476   
     18. B(O  16,C  12)                  1.2085         1.090238   
     19. B(C  17,C  14)                  1.3969         0.609205   
     20. B(C  17,C  13)                  1.4002         0.601809   
     21. B(C  18,C  15)                  1.4068         0.587361   
     22. B(C  19,C  15)                  1.4041         0.593316   
     23. B(C  20,C  18)                  1.3992         0.603974   
     24. B(C  21,C  19)                  1.3991         0.604353   
     25. B(C  22,C  21)                  1.3945         0.614580   
     26. B(C  22,C  20)                  1.3923         0.619581   
     27. B(H  23,C   7)                  1.0896         0.360693   
     28. B(H  24,O  11)                  0.9834         0.477110   
     29. B(H  25,C  13)                  1.0899         0.360237   
     30. B(H  26,C  14)                  1.0914         0.358209   
     31. B(H  27,C  17)                  1.0911         0.358624   
     32. B(H  28,C  18)                  1.0888         0.361736   
     33. B(H  29,C  19)                  1.0903         0.359640   
     34. B(H  30,C  20)                  1.0921         0.357329   
     35. B(H  31,C  21)                  1.0918         0.357677   
     36. B(H  32,C  22)                  1.0913         0.358352   
     37. A(C   2,C   0,C   3)          104.0630         0.407888   
     38. A(C   1,C   0,C   3)          126.5822         0.426109   
     39. A(C   1,C   0,C   2)          129.3547         0.415386   
     40. A(C   4,C   1,O   5)          109.0665         0.421449   
     41. A(C   0,C   1,C   4)          132.8838         0.423922   
     42. A(C   0,C   1,O   5)          118.0215         0.431486   
     43. A(C   0,C   2,C   6)          106.2090         0.414471   
     44. A(C   0,C   2,C   7)          134.5479         0.414006   
     45. A(C   6,C   2,C   7)          119.2378         0.431614   
     46. A(C   0,C   3,O   9)          128.8226         0.452063   
     47. A(C   0,C   3,O   8)          111.9671         0.424366   
     48. A(O   8,C   3,O   9)          119.1916         0.458678   
     49. A(C   1,C   4,O  11)          126.0536         0.428069   
     50. A(C   1,C   4,C  10)          108.3770         0.425972   
     51. A(C  10,C   4,O  11)          125.5595         0.440443   
     52. A(C   1,O   5,C  12)          108.4839         0.416810   
     53. A(O   8,C   6,C  13)          124.9704         0.428697   
     54. A(C   2,C   6,O   8)          111.1646         0.425678   
     55. A(C   2,C   6,C  13)          123.8547         0.435181   
     56. A(C   2,C   7,C  14)          117.9511         0.430136   
     57. A(C   2,C   7,H  23)          120.4455         0.351880   
     58. A(C  14,C   7,H  23)          121.6032         0.351120   
     59. A(C   3,O   8,C   6)          106.5782         0.424878   
     60. A(C  12,C  10,C  15)          124.8294         0.397688   
     61. A(C   4,C  10,C  15)          128.8221         0.416077   
     62. A(C   4,C  10,C  12)          106.3482         0.418634   
     63. A(C   4,O  11,H  24)          111.3394         0.370413   
     64. A(C  10,C  12,O  16)          133.7647         0.458229   
     65. A(O   5,C  12,O  16)          118.5125         0.461182   
     66. A(O   5,C  12,C  10)          107.7218         0.402589   
     67. A(C   6,C  13,C  17)          116.4348         0.433837   
     68. A(C  17,C  13,H  25)          122.3352         0.351159   
     69. A(C   6,C  13,H  25)          121.2271         0.354540   
     70. A(C   7,C  14,C  17)          121.5631         0.430240   
     71. A(C  17,C  14,H  26)          119.4491         0.351549   
     72. A(C   7,C  14,H  26)          118.9789         0.350710   
     73. A(C  10,C  15,C  18)          121.1200         0.410147   
     74. A(C  18,C  15,C  19)          118.0674         0.426491   
     75. A(C  10,C  15,C  19)          120.8121         0.410881   
     76. A(C  13,C  17,C  14)          120.9549         0.430388   
     77. A(C  14,C  17,H  27)          119.8489         0.351618   
     78. A(C  13,C  17,H  27)          119.1929         0.350893   
     79. A(C  20,C  18,H  28)          119.3660         0.351619   
     80. A(C  15,C  18,H  28)          119.8162         0.349966   
     81. A(C  15,C  18,C  20)          120.8140         0.427854   
     82. A(C  21,C  19,H  29)          120.1213         0.351311   
     83. A(C  15,C  19,H  29)          119.1798         0.350219   
     84. A(C  15,C  19,C  21)          120.6949         0.428676   
     85. A(C  22,C  20,H  30)          120.2481         0.352408   
     86. A(C  18,C  20,H  30)          119.0734         0.350891   
     87. A(C  18,C  20,C  22)          120.6736         0.431974   
     88. A(C  22,C  21,H  31)          120.1043         0.351983   
     89. A(C  19,C  21,H  31)          119.0711         0.350986   
     90. A(C  19,C  21,C  22)          120.8192         0.431394   
     91. A(C  21,C  22,H  32)          120.6007         0.352095   
     92. A(C  20,C  22,H  32)          120.4830         0.352578   
     93. A(C  20,C  22,C  21)          118.9163         0.433328   
     94. D(O   5,C   1,C   0,C   3)    176.5236         0.026588   
     95. D(O   5,C   1,C   0,C   2)     -3.6008         0.026588   
     96. D(C   4,C   1,C   0,C   3)     -1.3007         0.026588   
     97. D(C   4,C   1,C   0,C   2)    178.5748         0.026588   
     98. D(C   7,C   2,C   0,C   1)      0.1798         0.016011   
     99. D(C   6,C   2,C   0,C   1)    179.2957         0.016011   
    100. D(C   7,C   2,C   0,C   3)   -179.9232         0.016011   
    101. D(C   6,C   2,C   0,C   3)     -0.8073         0.016011   
    102. D(O   9,C   3,C   0,C   2)   -177.0424         0.021433   
    103. D(O   8,C   3,C   0,C   1)   -178.7506         0.021433   
    104. D(O   8,C   3,C   0,C   2)      1.3486         0.021433   
    105. D(O   9,C   3,C   0,C   1)      2.8584         0.021433   
    106. D(C  10,C   4,C   1,O   5)      0.0671         0.020194   
    107. D(O  11,C   4,C   1,C   0)     -0.8684         0.020194   
    108. D(C  10,C   4,C   1,C   0)    178.0351         0.020194   
    109. D(O  11,C   4,C   1,O   5)   -178.8364         0.020194   
    110. D(C  12,O   5,C   1,C   0)   -178.6838         0.028418   
    111. D(C  12,O   5,C   1,C   4)     -0.3704         0.028418   
    112. D(C  13,C   6,C   2,C   7)      0.4446         0.025899   
    113. D(O   8,C   6,C   2,C   7)    179.3234         0.025899   
    114. D(O   8,C   6,C   2,C   0)      0.0453         0.025899   
    115. D(C  13,C   6,C   2,C   0)   -178.8334         0.025899   
    116. D(H  23,C   7,C   2,C   6)    179.1285         0.025555   
    117. D(H  23,C   7,C   2,C   0)     -1.8443         0.025555   
    118. D(C  14,C   7,C   2,C   6)     -0.6726         0.025555   
    119. D(C  14,C   7,C   2,C   0)    178.3546         0.025555   
    120. D(C   3,O   8,C   6,C  13)    179.6441         0.024835   
    121. D(C   3,O   8,C   6,C   2)      0.7804         0.024835   
    122. D(C   6,O   8,C   3,O   9)    177.2199         0.029026   
    123. D(C   6,O   8,C   3,C   0)     -1.3442         0.029026   
    124. D(C  12,C  10,C   4,C   1)      0.2507         0.028157   
    125. D(C  15,C  10,C   4,O  11)     -0.6303         0.028157   
    126. D(C  15,C  10,C   4,C   1)   -179.5406         0.028157   
    127. D(C  12,C  10,C   4,O  11)    179.1610         0.028157   
    128. D(H  24,O  11,C   4,C  10)   -179.4402         0.034313   
    129. D(H  24,O  11,C   4,C   1)     -0.7194         0.034313   
    130. D(O  16,C  12,C  10,C  15)     -1.0499         0.016561   
    131. D(O  16,C  12,C  10,C   4)    179.1482         0.016561   
    132. D(O   5,C  12,C  10,C  15)    179.3286         0.016561   
    133. D(O   5,C  12,C  10,C   4)     -0.4733         0.016561   
    134. D(O  16,C  12,O   5,C   1)   -179.1666         0.020238   
    135. D(C  10,C  12,O   5,C   1)      0.5223         0.020238   
    136. D(H  25,C  13,C   6,O   8)      0.7622         0.028162   
    137. D(H  25,C  13,C   6,C   2)    179.4862         0.028162   
    138. D(C  17,C  13,C   6,O   8)   -178.6339         0.028162   
    139. D(C  17,C  13,C   6,C   2)      0.0901         0.028162   
    140. D(H  26,C  14,C   7,H  23)     -0.4898         0.024875   
    141. D(H  26,C  14,C   7,C   2)    179.3088         0.024875   
    142. D(C  17,C  14,C   7,H  23)   -179.3980         0.024875   
    143. D(C  17,C  14,C   7,C   2)      0.4006         0.024875   
    144. D(C  19,C  15,C  10,C  12)     -4.2162         0.015457   
    145. D(C  19,C  15,C  10,C   4)    175.5398         0.015457   
    146. D(C  18,C  15,C  10,C  12)    176.0547         0.015457   
    147. D(C  18,C  15,C  10,C   4)     -4.1893         0.015457   
    148. D(H  27,C  17,C  14,H  26)      0.5647         0.025628   
    149. D(H  27,C  17,C  14,C   7)    179.4679         0.025628   
    150. D(C  13,C  17,C  14,H  26)   -178.7668         0.025628   
    151. D(C  13,C  17,C  14,C   7)      0.1364         0.025628   
    152. D(H  27,C  17,C  13,H  25)      0.8978         0.024976   
    153. D(H  27,C  17,C  13,C   6)   -179.7134         0.024976   
    154. D(C  14,C  17,C  13,H  25)   -179.7664         0.024976   
    155. D(C  14,C  17,C  13,C   6)     -0.3776         0.024976   
    156. D(C  20,C  18,C  15,C  10)    178.5694         0.023731   
    157. D(H  28,C  18,C  15,C  19)    178.1126         0.023731   
    158. D(H  28,C  18,C  15,C  10)     -2.1511         0.023731   
    159. D(C  20,C  18,C  15,C  19)     -1.1669         0.023731   
    160. D(H  29,C  19,C  15,C  18)    179.4612         0.024239   
    161. D(H  29,C  19,C  15,C  10)     -0.2760         0.024239   
    162. D(C  21,C  19,C  15,C  18)      0.1912         0.024239   
    163. D(C  21,C  19,C  15,C  10)   -179.5459         0.024239   
    164. D(H  30,C  20,C  18,H  28)      1.1664         0.025166   
    165. D(H  30,C  20,C  18,C  15)   -179.5509         0.025166   
    166. D(C  22,C  20,C  18,H  28)   -178.0289         0.025166   
    167. D(C  22,C  20,C  18,C  15)      1.2539         0.025166   
    168. D(H  31,C  21,C  19,H  29)      0.6136         0.025199   
    169. D(H  31,C  21,C  19,C  15)    179.8767         0.025199   
    170. D(C  22,C  21,C  19,H  29)   -178.5415         0.025199   
    171. D(C  22,C  21,C  19,C  15)      0.7216         0.025199   
    172. D(H  32,C  22,C  21,H  31)      0.2392         0.026109   
    173. D(H  32,C  22,C  21,C  19)    179.3856         0.026109   
    174. D(C  20,C  22,C  21,H  31)   -179.7997         0.026109   
    175. D(C  20,C  22,C  21,C  19)     -0.6532         0.026109   
    176. D(H  32,C  22,C  20,H  30)      0.4495         0.026561   
    177. D(H  32,C  22,C  20,C  18)    179.6353         0.026561   
    178. D(C  21,C  22,C  20,H  30)   -179.5117         0.026561   
    179. D(C  21,C  22,C  20,C  18)     -0.3259         0.026561   
    -----------------------------------------------------------------

Number of atoms                         .... 33
Number of degrees of freedom            .... 179

         *************************************************************
         *                GEOMETRY OPTIMIZATION CYCLE   1            *
         *************************************************************
---------------------------------
CARTESIAN COORDINATES (ANGSTROEM)
---------------------------------
  C     -1.994061    0.749544    0.015357
  C     -2.882411    1.820071    0.069168
  C     -0.535106    0.756893    0.019474
  C     -2.331986   -0.627698   -0.060139
  C     -4.307746    1.902234    0.043768
  O     -2.367346    3.071906    0.211635
  C     -0.138666   -0.580108   -0.033062
  C      0.439888    1.756053    0.077441
  O     -1.229689   -1.421561   -0.070656
  O     -3.474730   -1.159220   -0.142701
  C     -4.670732    3.232471    0.171931
  O     -5.153826    0.871817   -0.061472
  C     -3.431503    3.987079    0.272814
  C      1.182817   -0.993894   -0.022748
  C      1.783855    1.361725    0.094541
  C     -6.011660    3.818241    0.209514
  O     -3.175507    5.162833    0.384298
  C      2.151351    0.014894    0.046965
  C     -7.157615    3.023848    0.022788
  C     -6.190270    5.191828    0.439250
  C     -8.437555    3.585219    0.089500
  C     -7.473460    5.747501    0.484056
  C     -8.604167    4.948696    0.316699
  H      0.152741    2.806730    0.104783
  H     -4.670913    0.018169   -0.133403
  H      1.444041   -2.051465   -0.057096
  H      2.559594    2.128749    0.128143
  H      3.207129   -0.260486    0.053049
  H     -7.051081    1.960996   -0.187944
  H     -5.314938    5.822968    0.595182
  H     -9.307743    2.940784   -0.052502
  H     -7.581712    6.818530    0.666506
  H     -9.603764    5.384265    0.362244

----------------------------
CARTESIAN COORDINATES (A.U.)
----------------------------
  NO LB      ZA    FRAG     MASS         X           Y           Z
   0 C     6.0000    0    12.011   -3.768229    1.416433    0.029021
   1 C     6.0000    0    12.011   -5.446967    3.439436    0.130709
   2 C     6.0000    0    12.011   -1.011204    1.430320    0.036801
   3 C     6.0000    0    12.011   -4.406815   -1.186177   -0.113646
   4 C     6.0000    0    12.011   -8.140460    3.594701    0.082710
   5 O     8.0000    0    15.999   -4.473636    5.805061    0.399932
   6 C     6.0000    0    12.011   -0.262041   -1.096245   -0.062478
   7 C     6.0000    0    12.011    0.831268    3.318459    0.146342
   8 O     8.0000    0    15.999   -2.323775   -2.686361   -0.133520
   9 O     8.0000    0    15.999   -6.566288   -2.190608   -0.269666
  10 C     6.0000    0    12.011   -8.826404    6.108485    0.324903
  11 O     8.0000    0    15.999   -9.739320    1.647495   -0.116165
  12 C     6.0000    0    12.011   -6.484601    7.534487    0.515544
  13 C     6.0000    0    12.011    2.235200   -1.878187   -0.042987
  14 C     6.0000    0    12.011    3.370997    2.573287    0.178657
  15 C     6.0000    0    12.011  -11.360391    7.215430    0.395924
  16 O     8.0000    0    15.999   -6.000839    9.756340    0.726218
  17 C     6.0000    0    12.011    4.065464    0.028146    0.088751
  18 C     6.0000    0    12.011  -13.525932    5.714245    0.043063
  19 C     6.0000    0    12.011  -11.697915    9.811133    0.830062
  20 C     6.0000    0    12.011  -15.944668    6.775082    0.169130
  21 C     6.0000    0    12.011  -14.122793   10.861203    0.914733
  22 C     6.0000    0    12.011  -16.259519    9.351680    0.598474
  23 H     1.0000    0     1.008    0.288639    5.303951    0.198011
  24 H     1.0000    0     1.008   -8.826746    0.034334   -0.252095
  25 H     1.0000    0     1.008    2.728842   -3.876707   -0.107896
  26 H     1.0000    0     1.008    4.836932    4.022753    0.242155
  27 H     1.0000    0     1.008    6.060595   -0.492247    0.100248
  28 H     1.0000    0     1.008  -13.324612    3.705745   -0.355163
  29 H     1.0000    0     1.008  -10.043777   11.003815    1.124731
  30 H     1.0000    0     1.008  -17.589085    5.557276   -0.099214
  31 H     1.0000    0     1.008  -14.327359   12.885154    1.259514
  32 H     1.0000    0     1.008  -18.148484   10.174786    0.684542

--------------------------------
INTERNAL COORDINATES (ANGSTROEM)
--------------------------------
 C      0   0   0     0.000000000000     0.00000000     0.00000000
 C      1   0   0     1.392152794757     0.00000000     0.00000000
 C      1   2   0     1.458979317713   129.35469827     0.00000000
 C      1   2   3     1.420101573200   126.58216824   180.12442633
 C      2   1   3     1.427927092254   132.88376092   178.57483466
 O      2   1   3     1.361131759801   118.02151548   356.39919755
 C      3   1   2     1.395527276300   106.20901543   179.29574943
 C      3   1   2     1.397245210665   134.54785660     0.17975895
 O      4   1   2     1.358450494596   111.96713977   181.24941087
 O      4   1   2     1.263010676861   128.82256949     2.85837386
 C      5   2   1     1.384815896404   108.37704055   178.03505292
 O      5   2   1     1.337417667705   126.05358145   359.13155406
 C      6   2   1     1.404889536803   108.48385468   181.31615474
 C      7   3   1     1.384789713885   123.85465239   181.16659555
 C      8   3   1     1.400726339680   117.95107712   178.35463125
 C     11   5   2     1.463771456196   128.82205541   180.45939806
 O     13   6   2     1.208453599766   118.51250147   180.83335838
 C     15   8   3     1.396878852425   121.56314185     0.40058198
 C     16  11   5     1.406819000280   121.12003914   355.81072294
 C     16  11   5     1.404073149222   120.81205053   175.53979164
 C     19  16  11     1.399226319859   120.81398326   178.56935046
 C     20  16  11     1.399055623149   120.69494073   180.45405705
 C     21  19  16     1.392281750823   120.67363992     1.25390597
 H      8   3   1     1.089551808269   120.44546145   358.15568358
 H     12   5   2     0.983409346221   111.33936712   359.28064435
 H     14   7   3     1.089896409445   121.22709698   179.48617444
 H     15   8   3     1.091432960425   118.97886667   179.30881690
 H     18  15   8     1.091117933470   119.84885293   179.46788251
 H     19  16  11     1.088766202122   119.81615120   357.84891199
 H     20  16  11     1.090347925411   119.17975323   359.72401508
 H     21  19  16     1.092102647453   119.07338012   180.44914882
 H     22  20  16     1.091837724593   119.07111663   179.87674162
 H     23  21  19     1.091324362046   120.48299586   179.63528377

---------------------------
INTERNAL COORDINATES (A.U.)
---------------------------
 C      0   0   0     0.000000000000     0.00000000     0.00000000
 C      1   0   0     2.630787518664     0.00000000     0.00000000
 C      1   2   0     2.757071345533   129.35469827     0.00000000
 C      1   2   3     2.683603055699   126.58216824   180.12442633
 C      2   1   3     2.698391143567   132.88376092   178.57483466
 O      2   1   3     2.572166258206   118.02151548   356.39919755
 C      3   1   2     2.637164364624   106.20901543   179.29574943
 C      3   1   2     2.640410790089   134.54785660     0.17975895
 O      4   1   2     2.567099401276   111.96713977   181.24941087
 O      4   1   2     2.386744283485   128.82256949     2.85837386
 C      5   2   1     2.616922790105   108.37704055   178.03505292
 O      5   2   1     2.527353118630   126.05358145   359.13155406
 C      6   2   1     2.654856472969   108.48385468   181.31615474
 C      7   3   1     2.616873312313   123.85465239   181.16659555
 C      8   3   1     2.646989170565   117.95107712   178.35463125
 C     11   5   2     2.766127174861   128.82205541   180.45939806
 O     13   6   2     2.283646349109   118.51250147   180.83335838
 C     15   8   3     2.639718473350   121.56314185     0.40058198
 C     16  11   5     2.658502630527   121.12003914   355.81072294
 C     16  11   5     2.653313724021   120.81205053   175.53979164
 C     19  16  11     2.644154543907   120.81398326   178.56935046
 C     20  16  11     2.643831973874   120.69494073   180.45405705
 C     21  19  16     2.631031210311   120.67363992     1.25390597
 H      8   3   1     2.058954526347   120.44546145   358.15568358
 H     12   5   2     1.858374341895   111.33936712   359.28064435
 H     14   7   3     2.059605728195   121.22709698   179.48617444
 H     15   8   3     2.062509388737   118.97886667   179.30881690
 H     18  15   8     2.061914074069   119.84885293   179.46788251
 H     19  16  11     2.057469945881   119.81615120   357.84891199
 H     20  16  11     2.060458969716   119.17975323   359.72401508
 H     21  19  16     2.063774913816   119.07338012   180.44914882
 H     22  20  16     2.063274282165   119.07111663   179.87674162
 H     23  21  19     2.062304167543   120.48299586   179.63528377

---------------------
BASIS SET INFORMATION
---------------------
There are 3 groups of distinct atoms

 Group   1 Type C   : 17s4p1d contracted to 3s2p1d pattern {881/31/1}
 Group   2 Type O   : 17s4p1d contracted to 3s2p1d pattern {881/31/1}
 Group   3 Type H   : 4s1p contracted to 2s1p pattern {31/1}

Atom   0C    basis set group =>   1
Atom   1C    basis set group =>   1
Atom   2C    basis set group =>   1
Atom   3C    basis set group =>   1
Atom   4C    basis set group =>   1
Atom   5O    basis set group =>   2
Atom   6C    basis set group =>   1
Atom   7C    basis set group =>   1
Atom   8O    basis set group =>   2
Atom   9O    basis set group =>   2
Atom  10C    basis set group =>   1
Atom  11O    basis set group =>   2
Atom  12C    basis set group =>   1
Atom  13C    basis set group =>   1
Atom  14C    basis set group =>   1
Atom  15C    basis set group =>   1
Atom  16O    basis set group =>   2
Atom  17C    basis set group =>   1
Atom  18C    basis set group =>   1
Atom  19C    basis set group =>   1
Atom  20C    basis set group =>   1
Atom  21C    basis set group =>   1
Atom  22C    basis set group =>   1
Atom  23H    basis set group =>   3
Atom  24H    basis set group =>   3
Atom  25H    basis set group =>   3
Atom  26H    basis set group =>   3
Atom  27H    basis set group =>   3
Atom  28H    basis set group =>   3
Atom  29H    basis set group =>   3
Atom  30H    basis set group =>   3
Atom  31H    basis set group =>   3
Atom  32H    basis set group =>   3
---------------------------------
AUXILIARY/J BASIS SET INFORMATION
---------------------------------
There are 3 groups of distinct atoms

 Group   1 Type C   : 12s5p4d2f1g contracted to 6s4p3d1f1g pattern {711111/2111/211/2/1}
 Group   2 Type O   : 12s5p4d2f1g contracted to 6s4p3d1f1g pattern {711111/2111/211/2/1}
 Group   3 Type H   : 5s2p1d contracted to 3s1p1d pattern {311/2/1}

Atom   0C    basis set group =>   1
Atom   1C    basis set group =>   1
Atom   2C    basis set group =>   1
Atom   3C    basis set group =>   1
Atom   4C    basis set group =>   1
Atom   5O    basis set group =>   2
Atom   6C    basis set group =>   1
Atom   7C    basis set group =>   1
Atom   8O    basis set group =>   2
Atom   9O    basis set group =>   2
Atom  10C    basis set group =>   1
Atom  11O    basis set group =>   2
Atom  12C    basis set group =>   1
Atom  13C    basis set group =>   1
Atom  14C    basis set group =>   1
Atom  15C    basis set group =>   1
Atom  16O    basis set group =>   2
Atom  17C    basis set group =>   1
Atom  18C    basis set group =>   1
Atom  19C    basis set group =>   1
Atom  20C    basis set group =>   1
Atom  21C    basis set group =>   1
Atom  22C    basis set group =>   1
Atom  23H    basis set group =>   3
Atom  24H    basis set group =>   3
Atom  25H    basis set group =>   3
Atom  26H    basis set group =>   3
Atom  27H    basis set group =>   3
Atom  28H    basis set group =>   3
Atom  29H    basis set group =>   3
Atom  30H    basis set group =>   3
Atom  31H    basis set group =>   3
Atom  32H    basis set group =>   3
------------------------------------------------------------------------------
                           ORCA GTO INTEGRAL CALCULATION
                           -- RI-GTO INTEGRALS CHOSEN --
------------------------------------------------------------------------------
------------------------------------------------------------------------------
                   ___                                                        
                  /   \      - P O W E R E D   B Y -                         
                 /     \                                                     
                 |  |  |   _    _      __       _____    __    __             
                 |  |  |  | |  | |    /  \     |  _  \  |  |  /  |          
                  \  \/   | |  | |   /    \    | | | |  |  | /  /          
                 / \  \   | |__| |  /  /\  \   | |_| |  |  |/  /          
                |  |  |   |  __  | /  /__\  \  |    /   |      \           
                |  |  |   | |  | | |   __   |  |    \   |  |\   \          
                \     /   | |  | | |  |  |  |  | |\  \  |  | \   \       
                 \___/    |_|  |_| |__|  |__|  |_| \__\ |__|  \__/        
                                                                              
                      - O R C A' S   B I G   F R I E N D -                    
                                      &                                       
                       - I N T E G R A L  F E E D E R -                       
                                                                              
 v1 FN, 2020, v2 2021                                                         
------------------------------------------------------------------------------


Reading SHARK input file calcyn_opt_iroot_6_recook.SHARKINP.tmp ... ok
----------------------
SHARK INTEGRAL PACKAGE
----------------------

Number of atoms                             ...     33
Number of basis functions                   ...    510
Number of shells                            ...    306
Maximum angular momentum                    ...      2
Integral batch strategy                     ... SHARK/LIBINT Hybrid
RI-J (if used) integral strategy            ... SPLIT-RIJ (Revised 2003 algorithm where possible)
Printlevel                                  ...      1
Contraction scheme used                     ... PARTIAL GENERAL contraction
Coulomb Range Separation                    ... NOT USED
Exchange Range Separation                   ... Long Range
   Mu parameter                             ...  0.250000
   Scaling (regular/separated)              ...  0.195728  0.804272
Finite Nucleus Model                        ... NOT USED
Auxiliary Coulomb fitting basis             ... AVAILABLE
   # of basis functions in Aux-J            ...   1237
   # of shells in Aux-J                     ...    395
   Maximum angular momentum in Aux-J        ...      4
Auxiliary J/K fitting basis                 ... NOT available
Auxiliary Correlation fitting basis         ... NOT available
Auxiliary 'external' fitting basis          ... NOT available
Integral threshold                          ...     2.500000e-11
Primitive cut-off                           ...     2.500000e-12
Primitive pair pre-selection threshold      ...     2.500000e-12

Calculating pre-screening integrals         ... done (  0.1 sec) Dimension = 306
Calculating pre-screening integrals (ORCA)  ... done (  0.6 sec) Dimension = 168
Organizing shell pair data                  ... done (  0.2 sec)
Shell pair information
Total number of shell pairs                 ...     46971
Shell pairs after pre-screening             ...     20302
Total number of primitive shell pairs       ...     69477
Primitive shell pairs kept                  ...     26505
          la=0 lb=0:   8267 shell pairs
          la=1 lb=0:   7268 shell pairs
          la=1 lb=1:   1166 shell pairs
          la=2 lb=0:   2550 shell pairs
          la=2 lb=1:    876 shell pairs
          la=2 lb=2:    175 shell pairs

Calculating one electron integrals          ... done (  0.1 sec)
Calculating RI/J V-Matrix + Cholesky decomp.... done (  0.1 sec)
Calculating Nuclear repulsion               ... done (  0.0 sec) ENN=   1755.731620187926 Eh

SHARK setup successfully completed in   1.5 seconds

Maximum memory used throughout the entire GTOINT-calculation: 83.7 MB
-------------------------------------------------------------------------------
                                 ORCA SCF
-------------------------------------------------------------------------------

------------
SCF SETTINGS
------------
Hamiltonian:
 Density Functional     Method          .... DFT(GTOs)
 Exchange Functional    Exchange        .... WB97X-D3
 Correlation Functional Correlation     .... WB97X-D3
 Gradients option       PostSCFGGA      .... off
 Hybrid DFT is turned on
   Fraction HF Exchange ScalHFX         ....  0.195728
   Scaling of DF-GGA-X  ScalDFX         ....  0.000000
   Scaling of DF-GGA-C  ScalDFC         ....  1.000000
   Scaling of DF-LDA-C  ScalLDAC        ....  1.000000
   Perturbative correction              ....  0.000000
   Density functional embedding theory  .... OFF
 Long-range corrected/Screened/Range-Separated Hybrid DFT is turned on
   Amount of maximum screened exact exchange              ....  0.804272
   Range separation parameter mu (erf(mu*r12)/r12)        ....  0.250000
 RI-approximation to the Coulomb term is turned on
   Number of AuxJ basis functions       .... 1237
   RIJ-COSX (HFX calculated with COS-X)).... on


General Settings:
 Integral files         IntName         .... calcyn_opt_iroot_6_recook
 Hartree-Fock type      HFTyp           .... RHF
 Total Charge           Charge          ....    0
 Multiplicity           Mult            ....    1
 Number of Electrons    NEL             ....  158
 Basis Dimension        Dim             ....  372
 Nuclear Repulsion      ENuc            ....   1755.7316201879 Eh

Convergence Acceleration:
 DIIS                   CNVDIIS         .... on
   Start iteration      DIISMaxIt       ....    12
   Startup error        DIISStart       ....  0.200000
   # of expansion vecs  DIISMaxEq       ....     5
   Bias factor          DIISBfac        ....   1.050
   Max. coefficient     DIISMaxC        ....  10.000
 Trust-Rad. Augm. Hess. CNVTRAH         .... auto
   Auto Start mean grad. ratio tolernc. ....  1.125000
   Auto Start start iteration           ....    20
   Auto Start num. interpolation iter.  ....    10
   Max. Number of Micro iterations      ....    16
   Max. Number of Macro iterations      .... Maxiter - #DIIS iter
   Number of Davidson start vectors     ....     2
   Converg. threshold I  (grad. norm)   ....   1.000e-05
   Converg. threshold II (energy diff.) ....   1.000e-08
   Grad. Scal. Fac. for Micro threshold ....   0.100
   Minimum threshold for Micro iter.    ....   0.010
   NR start threshold (gradient norm)   ....   0.001
   Initial trust radius                 ....   0.400
   Minimum AH scaling param. (alpha)    ....   1.000
   Maximum AH scaling param. (alpha)    .... 1000.000
   Orbital update algorithm             .... Taylor
   White noise on init. David. guess    .... on
   Maximum white noise                  ....   0.010
   Quad. conv. algorithm                .... NR
 SOSCF                  CNVSOSCF        .... on
   Start iteration      SOSCFMaxIt      ....   150
   Startup grad/error   SOSCFStart      ....  0.003300
 Level Shifting         CNVShift        .... on
   Level shift para.    LevelShift      ....    0.2500
   Turn off err/grad.   ShiftErr        ....    0.0010
 Zerner damping         CNVZerner       .... off
 Static damping         CNVDamp         .... on
   Fraction old density DampFac         ....    0.7000
   Max. Damping (<1)    DampMax         ....    0.9800
   Min. Damping (>=0)   DampMin         ....    0.0000
   Turn off err/grad.   DampErr         ....    0.1000
 Fernandez-Rico         CNVRico         .... off

SCF Procedure:
 Maximum # iterations   MaxIter         ....   125
 SCF integral mode      SCFMode         .... Direct
   Integral package                     .... SHARK and LIBINT hybrid scheme
 Reset frequency        DirectResetFreq ....    20
 Integral Threshold     Thresh          ....  2.500e-11 Eh
 Primitive CutOff       TCut            ....  2.500e-12 Eh

Convergence Tolerance:
 Convergence Check Mode ConvCheckMode   .... Total+1el-Energy
 Convergence forced     ConvForced      .... 1
 Energy Change          TolE            ....  1.000e-08 Eh
 1-El. energy change                    ....  1.000e-05 Eh
 Orbital Gradient       TolG            ....  1.000e-05
 Orbital Rotation angle TolX            ....  1.000e-05
 DIIS Error             TolErr          ....  5.000e-07


Diagonalization of the overlap matrix:
Smallest eigenvalue                        ... 2.165e-04
Time for diagonalization                   ...    0.042 sec
Threshold for overlap eigenvalues          ... 1.000e-08
Number of eigenvalues below threshold      ... 0
Time for construction of square roots      ...    0.016 sec
Total time needed                          ...    0.059 sec

Time for model grid setup =    1.596 sec

------------------------------
INITIAL GUESS: MODEL POTENTIAL
------------------------------
Loading Hartree-Fock densities                     ... done
Calculating cut-offs                               ... done
Initializing the effective Hamiltonian             ... done
Setting up the integral package (SHARK)            ... done
Starting the Coulomb interaction                   ... done (   2.4 sec)
Reading the grid                                   ... done
Mapping shells                                     ... done
Starting the XC term evaluation                    ... done (   1.5 sec)
  promolecular density results
     # of electrons  =    157.993500985
     EX              =   -135.843846052
     EC              =     -5.362772023
     EX+EC           =   -141.206618075
Transforming the Hamiltonian                       ... done (   0.0 sec)
Diagonalizing the Hamiltonian                      ... done (   0.0 sec)
Back transforming the eigenvectors                 ... done (   0.0 sec)
Now organizing SCF variables                       ... done
                      ------------------
                      INITIAL GUESS DONE (   5.5 sec)
                      ------------------
-------------------
DFT GRID GENERATION
-------------------

General Integration Accuracy     IntAcc      ... 4.388
Radial Grid Type                 RadialGrid  ... OptM3 with GC (2021)
Angular Grid (max. ang.)         AngularGrid ... 4 (Lebedev-302)
Angular grid pruning method      GridPruning ... 4 (adaptive)
Weight generation scheme         WeightScheme... Becke
Basis function cutoff            BFCut       ... 1.0000e-11
Integration weight cutoff        WCut        ... 1.0000e-14
Angular grids for H and He will be reduced by one unit
Partially contracted basis set               ... off
Rotationally invariant grid construction     ... off

Total number of grid points                  ...   169749
Total number of batches                      ...     2671
Average number of points per batch           ...       63
Average number of grid points per atom       ...     5144
Time for grid setup =    5.170 sec

--------------------
COSX GRID GENERATION
--------------------

GRIDX 1
-------
General Integration Accuracy     IntAcc      ... 3.816
Radial Grid Type                 RadialGrid  ... OptM3 with GC (2021)
Angular Grid (max. ang.)         AngularGrid ... 1 (Lebedev-50)
Angular grid pruning method      GridPruning ... 4 (adaptive)
Weight generation scheme         WeightScheme... Becke
Basis function cutoff            BFCut       ... 1.0000e-11
Integration weight cutoff        WCut        ... 1.0000e-14
Angular grids for H and He will be reduced by one unit
Partially contracted basis set               ... on
Rotationally invariant grid construction     ... off

Total number of grid points                  ...    21563
Total number of batches                      ...      353
Average number of points per batch           ...       61
Average number of grid points per atom       ...      653
UseSFitting                                  ... on

GRIDX 2
-------
General Integration Accuracy     IntAcc      ... 4.020
Radial Grid Type                 RadialGrid  ... OptM3 with GC (2021)
Angular Grid (max. ang.)         AngularGrid ... 2 (Lebedev-110)
Angular grid pruning method      GridPruning ... 4 (adaptive)
Weight generation scheme         WeightScheme... Becke
Basis function cutoff            BFCut       ... 1.0000e-11
Integration weight cutoff        WCut        ... 1.0000e-14
Angular grids for H and He will be reduced by one unit
Partially contracted basis set               ... on
Rotationally invariant grid construction     ... off

Total number of grid points                  ...    48128
Total number of batches                      ...      768
Average number of points per batch           ...       62
Average number of grid points per atom       ...     1458
UseSFitting                                  ... on

GRIDX 3
-------
General Integration Accuracy     IntAcc      ... 4.338
Radial Grid Type                 RadialGrid  ... OptM3 with GC (2021)
Angular Grid (max. ang.)         AngularGrid ... 3 (Lebedev-194)
Angular grid pruning method      GridPruning ... 4 (adaptive)
Weight generation scheme         WeightScheme... Becke
Basis function cutoff            BFCut       ... 1.0000e-11
Integration weight cutoff        WCut        ... 1.0000e-14
Angular grids for H and He will be reduced by one unit
Partially contracted basis set               ... on
Rotationally invariant grid construction     ... off

Total number of grid points                  ...   105881
Total number of batches                      ...     1672
Average number of points per batch           ...       63
Average number of grid points per atom       ...     3209
UseSFitting                                  ... on

Time for X-Grid setup             =    7.435 sec

 re-compute Schwartz prescreening matrix in partically contracted basis (1) ...done (   0.188 sec)
--------------
SCF ITERATIONS
--------------
ITER       Energy         Delta-E        Max-DP      RMS-DP      [F,P]     Damp
               ***  Starting incremental Fock matrix formation  ***
  0  -1067.3931670240   0.000000000000 0.08134887  0.00160651  0.2364200 0.7000
  1  -1067.5868840620  -0.193717038000 0.05031261  0.00115360  0.1074527 0.7000
