hamilton33.ccc.uam.es
/temporal/fmatar/slurm_tmp_6516978

                                 *****************
                                 * O   R   C   A *
                                 *****************

                                            #,                                       
                                            ###                                      
                                            ####                                     
                                            #####                                    
                                            ######                                   
                                           ########,                                 
                                     ,,################,,,,,                         
                               ,,#################################,,                 
                          ,,##########################################,,             
                       ,#########################################, ''#####,          
                    ,#############################################,,   '####,        
                  ,##################################################,,,,####,       
                ,###########''''           ''''###############################       
              ,#####''   ,,,,##########,,,,          '''####'''          '####       
            ,##' ,,,,###########################,,,                        '##       
           ' ,,###''''                  '''############,,,                           
         ,,##''                                '''############,,,,        ,,,,,,###''
      ,#''                                            '''#######################'''  
     '                                                          ''''####''''         
             ,#######,   #######,   ,#######,      ##                                
            ,#'     '#,  ##    ##  ,#'     '#,    #''#        ######   ,####,        
            ##       ##  ##   ,#'  ##            #'  '#       #        #'  '#        
            ##       ##  #######   ##           ,######,      #####,   #    #        
            '#,     ,#'  ##    ##  '#,     ,#' ,#      #,         ##   #,  ,#        
             '#######'   ##     ##  '#######'  #'      '#     #####' # '####'        



                  #######################################################
                  #                        -***-                        #
                  #          Department of theory and spectroscopy      #
                  #    Directorship and core code : Frank Neese         #
                  #        Max Planck Institute fuer Kohlenforschung    #
                  #                Kaiser Wilhelm Platz 1               #
                  #                 D-45470 Muelheim/Ruhr               #
                  #                      Germany                        #
                  #                                                     #
                  #                  All rights reserved                #
                  #                        -***-                        #
                  #######################################################


                         Program Version 5.0.3 -  RELEASE  -


 With contributions from (in alphabetic order):
   Daniel Aravena         : Magnetic Suceptibility
   Michael Atanasov       : Ab Initio Ligand Field Theory (pilot matlab implementation)
   Alexander A. Auer      : GIAO ZORA, VPT2 properties, NMR spectrum
   Ute Becker             : Parallelization
   Giovanni Bistoni       : ED, misc. LED, open-shell LED, HFLD
   Martin Brehm           : Molecular dynamics
   Dmytro Bykov           : SCF Hessian
   Vijay G. Chilkuri      : MRCI spin determinant printing, contributions to CSF-ICE
   Dipayan Datta          : RHF DLPNO-CCSD density
   Achintya Kumar Dutta   : EOM-CC, STEOM-CC
   Dmitry Ganyushin       : Spin-Orbit,Spin-Spin,Magnetic field MRCI
   Miquel Garcia          : C-PCM and meta-GGA Hessian, CC/C-PCM, Gaussian charge scheme
   Yang Guo               : DLPNO-NEVPT2, F12-NEVPT2, CIM, IAO-localization
   Andreas Hansen         : Spin unrestricted coupled pair/coupled cluster methods
   Benjamin Helmich-Paris : MC-RPA, TRAH-SCF, COSX integrals
   Lee Huntington         : MR-EOM, pCC
   Robert Izsak           : Overlap fitted RIJCOSX, COSX-SCS-MP3, EOM
   Marcus Kettner         : VPT2
   Christian Kollmar      : KDIIS, OOCD, Brueckner-CCSD(T), CCSD density, CASPT2, CASPT2-K
   Simone Kossmann        : Meta GGA functionals, TD-DFT gradient, OOMP2, MP2 Hessian
   Martin Krupicka        : Initial AUTO-CI
   Lucas Lang             : DCDCAS
   Marvin Lechner         : AUTO-CI (C++ implementation), FIC-MRCC
   Dagmar Lenk            : GEPOL surface, SMD
   Dimitrios Liakos       : Extrapolation schemes; Compound Job, initial MDCI parallelization
   Dimitrios Manganas     : Further ROCIS development; embedding schemes
   Dimitrios Pantazis     : SARC Basis sets
   Anastasios Papadopoulos: AUTO-CI, single reference methods and gradients
   Taras Petrenko         : DFT Hessian,TD-DFT gradient, ASA, ECA, R-Raman, ABS, FL, XAS/XES, NRVS
   Peter Pinski           : DLPNO-MP2, DLPNO-MP2 Gradient
   Christoph Reimann      : Effective Core Potentials
   Marius Retegan         : Local ZFS, SOC
   Christoph Riplinger    : Optimizer, TS searches, QM/MM, DLPNO-CCSD(T), (RO)-DLPNO pert. Triples
   Tobias Risthaus        : Range-separated hybrids, TD-DFT gradient, RPA, STAB
   Michael Roemelt        : Original ROCIS implementation
   Masaaki Saitow         : Open-shell DLPNO-CCSD energy and density
   Barbara Sandhoefer     : DKH picture change effects
   Avijit Sen             : IP-ROCIS
   Kantharuban Sivalingam : CASSCF convergence, NEVPT2, FIC-MRCI
   Bernardo de Souza      : ESD, SOC TD-DFT
   Georgi Stoychev        : AutoAux, RI-MP2 NMR, DLPNO-MP2 response
   Willem Van den Heuvel  : Paramagnetic NMR
   Boris Wezisla          : Elementary symmetry handling
   Frank Wennmohs         : Technical directorship


 We gratefully acknowledge several colleagues who have allowed us to
 interface, adapt or use parts of their codes:
   Stefan Grimme, W. Hujo, H. Kruse, P. Pracht,  : VdW corrections, initial TS optimization,
                  C. Bannwarth, S. Ehlert          DFT functionals, gCP, sTDA/sTD-DF
   Ed Valeev, F. Pavosevic, A. Kumar             : LibInt (2-el integral package), F12 methods
   Garnet Chan, S. Sharma, J. Yang, R. Olivares  : DMRG
   Ulf Ekstrom                                   : XCFun DFT Library
   Mihaly Kallay                                 : mrcc  (arbitrary order and MRCC methods)
   Jiri Pittner, Ondrej Demel                    : Mk-CCSD
   Frank Weinhold                                : gennbo (NPA and NBO analysis)
   Christopher J. Cramer and Donald G. Truhlar   : smd solvation model
   Lars Goerigk                                  : TD-DFT with DH, B97 family of functionals
   V. Asgeirsson, H. Jonsson                     : NEB implementation
   FAccTs GmbH                                   : IRC, NEB, NEB-TS, DLPNO-Multilevel, CI-OPT
                                                   MM, QMMM, 2- and 3-layer-ONIOM, Crystal-QMMM,
                                                   LR-CPCM, SF, NACMEs, symmetry and pop. for TD-DFT,
                                                   nearIR, NL-DFT gradient (VV10), updates on ESD,
                                                   ML-optimized integration grids
   S Lehtola, MJT Oliveira, MAL Marques          : LibXC Library
   Liviu Ungur et al                             : ANISO software


 Your calculation uses the libint2 library for the computation of 2-el integrals
 For citations please refer to: http://libint.valeyev.net

 Your ORCA version has been built with support for libXC version: 5.1.0
 For citations please refer to: https://tddft.org/programs/libxc/

 This ORCA versions uses:
   CBLAS   interface :  Fast vector & matrix operations
   LAPACKE interface :  Fast linear algebra routines
   SCALAPACK package :  Parallel linear algebra routines
   Shared memory     :  Shared parallel matrices
   BLAS/LAPACK       :  OpenBLAS 0.3.15  USE64BITINT DYNAMIC_ARCH NO_AFFINITY Prescott SINGLE_THREADED
        Core in use  :  Prescott
   Copyright (c) 2011-2014, The OpenBLAS Project


XCFun DFT library Copyright 2009-2010 Ulf Ekstrom and contributors.
See http://admol.org/xcfun for more information.
This is free software; see the source code for copying conditions.
There is ABSOLUTELY NO WARRANTY; not even for MERCHANTABILITY or FITNESS FOR A PARTICULAR PURPOSE.
For details see the documentation.
Scientific users of this library should cite U. Ekstrom, L. Visscher, R. Bast, A. J. Thorvaldsen and K. Ruud;
J.Chem.Theor.Comp. 2010, DOI: 10.1021/ct100117s
XCFun Version 0.99 

================================================================================

----- Orbital basis set information -----
Your calculation utilizes the basis: cc-pVDZ 
       H, B-Ne : Obtained from the ccRepo (grant-hill.group.shef.ac.uk/ccrepo) Feb. 2017
                 T. H. Dunning, Jr., J. Chem. Phys. 90, 1007 (1989)
            He : Obtained from the ccRepo (grant-hill.group.shef.ac.uk/ccrepo) Feb. 2017
                 D. E. Woon, T. H. Dunning, Jr., J. Chem. Phys. 100, 2975 (1994)
  Li-Be, Na-Mg : Obtained from the ccRepo (grant-hill.group.shef.ac.uk/ccrepo) Feb. 2017
                 B. P. Prascher, D. E. Woon, K. A. Peterson, T. H. Dunning, Jr., A. K. Wilson, Theor. Chem. Acc. 128, 69 (2011)
         Al-Ar : Obtained from the ccRepo (grant-hill.group.shef.ac.uk/ccrepo) Feb. 2017
                 D. E. Woon, T. H. Dunning, Jr., J. Chem. Phys. 98, 1358 (1993)
            Ca : Obtained from the Peterson Research Group Website (tyr0.chem.wsu.edu/~kipeters) Feb. 2017
                 J. Koput, K. A. Peterson, J. Phys. Chem. 106, 9595 (2002)
         Sc-Zn : Obtained from the ccRepo (grant-hill.group.shef.ac.uk/ccrepo) Feb. 2017
                 N. B. Balabanov, K. A. Peterson, J. Chem. Phys. 123, 064107 (2005)
                 N. B. Balabanov, K. A. Peterson, J. Chem. Phys. 125, 074110 (2006)
         Ga-Kr : Obtained from the ccRepo (grant-hill.group.shef.ac.uk/ccrepo) Feb. 2017
                 A. K. Wilson, D. E. Woon, K. A. Peterson, T. H. Dunning, Jr., J. Chem. Phys. 110, 7667 (1999)

----- AuxJ basis set information -----
Your calculation utilizes the auxiliary basis: def2/J
   F. Weigend, Phys. Chem. Chem. Phys. 8, 1057 (2006).

================================================================================
                                        WARNINGS
                       Please study these warnings very carefully!
================================================================================

INFO   : Checking CIS options ...

WARNING: Geometry Optimization
  ===> : Switching off AutoStart
         For restart on a previous wavefunction, please use MOREAD

WARNING: CIS/ROCIS methods need fully converged wavefunctions
  ===> : Setting SCFConvForced true
         You can overwrite this default with %scf ConvForced false 


INFO   : the flag for use of the SHARK integral package has been found!

================================================================================
                                       INPUT FILE
================================================================================
NAME = beta-carboline_opt_iroot_1.in
|  1> 
|  2> ! cam-b3lyp cc-pvdz opt 
|  3> 
|  4> %tddft
|  5>  nroots 10
|  6>  tda TRUE
|  7>  IRoot 1
|  8> end
|  9> 
| 10> *xyz 0 1 
| 11>   C   -0.30983386222708      3.31172673617910     -0.18957626932439
| 12>   C   -0.72083732346930      1.97089465357528     -0.10867033133745
| 13>   C   0.19780452341277      0.93374563117068     -0.03998559515258
| 14>   C   1.55386157227823      1.26766911593450     -0.05423550685910
| 15>   C   1.98491234227371      2.61209658765160     -0.13503499724067
| 16>   C   1.03787090858897      3.63788347803435     -0.20288324382600
| 17>   C   3.43466444944196      2.57860445516610     -0.12665189963869
| 18>   C   3.80554092044644      1.22070325432463     -0.04150079352485
| 19>   C   5.15371605163716      0.86302949688622     -0.01377702391360
| 20>   C   4.45384855886284      3.53020373553760     -0.18113623982349
| 21>   C   5.76397039399165      3.07271975964906     -0.14749626219756
| 22>   N   6.11373822651619      1.77785700150158     -0.06617223180251
| 23>   N   2.66253240927270      0.44497600352554      0.00168383041358
| 24>   H   1.35591045827433      4.68015430885603     -0.26546801639392
| 25>   H   -1.06072263528408      4.10106100762381     -0.24280248667886
| 26>   H   -1.78716748533082      1.73825198156446     -0.09987446948283
| 27>   H   -0.12972326427160     -0.10533013374620      0.02260541593547
| 28>   H   5.46504502804566     -0.18487858302127      0.05213484207598
| 29>   H   4.23887733232657      4.59765426056001     -0.24770430981127
| 30>   H   6.59300591053844      3.78433726939484     -0.18823791448510
| 31>   H   2.63980438287523     -0.56163517506794      0.06418374656784
| 32> *
| 33> %pal
| 34>   nprocs 16
| 35>   end
| 36> 
| 37>                          ****END OF INPUT****
================================================================================

                       *****************************
                       * Geometry Optimization Run *
                       *****************************

Geometry optimization settings:
Update method            Update   .... BFGS
Choice of coordinates    CoordSys .... Z-matrix Internals
Initial Hessian          InHess   .... Almoef's Model

Convergence Tolerances:
Energy Change            TolE     ....  5.0000e-06 Eh
Max. Gradient            TolMAXG  ....  3.0000e-04 Eh/bohr
RMS Gradient             TolRMSG  ....  1.0000e-04 Eh/bohr
Max. Displacement        TolMAXD  ....  4.0000e-03 bohr
RMS Displacement         TolRMSD  ....  2.0000e-03 bohr
Strict Convergence                ....  False
------------------------------------------------------------------------------
                        ORCA OPTIMIZATION COORDINATE SETUP
------------------------------------------------------------------------------

The optimization will be done in new redundant internal coordinates
Making redundant internal coordinates   ...  (new redundants) done
Evaluating the initial hessian          ...  (Almloef) done
Evaluating the coordinates              ...  done
Calculating the B-matrix                .... done
Calculating the G-matrix                .... done
Diagonalizing the G-matrix              .... done
The first mode is                       ....   59
The number of degrees of freedom        ....   57

    -----------------------------------------------------------------
                    Redundant Internal Coordinates


    -----------------------------------------------------------------
         Definition                    Initial Value    Approx d2E/dq
    -----------------------------------------------------------------
      1. B(C   1,C   0)                  1.4047         0.591859   
      2. B(C   2,C   1)                  1.3872         0.631278   
      3. B(C   3,C   2)                  1.3966         0.609744   
      4. B(C   4,C   3)                  1.4141         0.571755   
      5. B(C   5,C   4)                  1.3978         0.607239   
      6. B(C   5,C   0)                  1.3867         0.632478   
      7. B(C   6,C   4)                  1.4502         0.500901   
      8. B(C   7,C   6)                  1.4102         0.580087   
      9. B(C   8,C   7)                  1.3951         0.613223   
     10. B(C   9,C   6)                  1.3954         0.612440   
     11. B(C  10,C   9)                  1.3881         0.629155   
     12. B(N  11,C  10)                  1.3437         0.663270   
     13. B(N  11,C   8)                  1.3271         0.704963   
     14. B(N  12,C   7)                  1.3821         0.576163   
     15. B(N  12,C   3)                  1.3817         0.576917   
     16. B(H  13,C   5)                  1.0915         0.358108   
     17. B(H  14,C   0)                  1.0907         0.359121   
     18. B(H  15,C   1)                  1.0914         0.358189   
     19. B(H  16,C   2)                  1.0913         0.358424   
     20. B(H  17,C   8)                  1.0952         0.353335   
     21. B(H  18,C   9)                  1.0909         0.358892   
     22. B(H  19,C  10)                  1.0933         0.355728   
     23. B(H  20,N  12)                  1.0088         0.434611   
     24. A(C   1,C   0,H  14)          119.4810         0.349988   
     25. A(C   5,C   0,H  14)          119.8938         0.353939   
     26. A(C   1,C   0,C   5)          120.6252         0.432001   
     27. A(C   0,C   1,C   2)          121.5162         0.431853   
     28. A(C   2,C   1,H  15)          119.1585         0.353669   
     29. A(C   0,C   1,H  15)          119.3252         0.349835   
     30. A(C   3,C   2,H  16)          121.3091         0.351637   
     31. A(C   1,C   2,H  16)          121.0632         0.353708   
     32. A(C   1,C   2,C   3)          117.6278         0.434171   
     33. A(C   2,C   3,C   4)          121.5903         0.426520   
     34. A(C   4,C   3,N  12)          108.8926         0.419576   
     35. A(C   2,C   3,N  12)          129.5170         0.424424   
     36. A(C   3,C   4,C   5)          119.6003         0.426206   
     37. A(C   3,C   4,C   6)          106.4058         0.411828   
     38. A(C   5,C   4,C   6)          133.9938         0.416258   
     39. A(C   0,C   5,C   4)          119.0401         0.433998   
     40. A(C   0,C   5,H  13)          120.5530         0.353769   
     41. A(C   4,C   5,H  13)          120.4069         0.351340   
     42. A(C   7,C   6,C   9)          117.8343         0.427965   
     43. A(C   4,C   6,C   9)          135.5766         0.416890   
     44. A(C   4,C   6,C   7)          106.5891         0.412887   
     45. A(C   6,C   7,C   8)          120.1470         0.428063   
     46. A(C   8,C   7,N  12)          130.8968         0.424757   
     47. A(C   6,C   7,N  12)          108.9562         0.420562   
     48. A(C   7,C   8,H  17)          121.4148         0.351126   
     49. A(C   7,C   8,N  11)          121.4355         0.440445   
     50. A(N  11,C   8,H  17)          117.1497         0.357303   
     51. A(C   6,C   9,C  10)          117.6223         0.434253   
     52. A(C  10,C   9,H  18)          120.6604         0.353585   
     53. A(C   6,C   9,H  18)          121.7172         0.351977   
     54. A(C   9,C  10,N  11)          124.3833         0.437647   
     55. A(N  11,C  10,H  19)          115.5999         0.354031   
     56. A(C   9,C  10,H  19)          120.0169         0.353055   
     57. A(C   8,N  11,C  10)          118.5777         0.443798   
     58. A(C   3,N  12,C   7)          109.1561         0.417426   
     59. A(C   7,N  12,H  20)          125.4950         0.354493   
     60. A(C   3,N  12,H  20)          125.3489         0.354572   
     61. D(H  15,C   1,C   0,H  14)     -0.0221         0.024114   
     62. D(C   2,C   1,C   0,H  14)    179.9580         0.024114   
     63. D(C   2,C   1,C   0,C   5)     -0.0103         0.024114   
     64. D(H  15,C   1,C   0,C   5)   -179.9904         0.024114   
     65. D(H  16,C   2,C   1,H  15)     -0.0160         0.027638   
     66. D(C   3,C   2,C   1,H  15)    179.9668         0.027638   
     67. D(H  16,C   2,C   1,C   0)   -179.9962         0.027638   
     68. D(C   3,C   2,C   1,C   0)     -0.0133         0.027638   
     69. D(N  12,C   3,C   2,H  16)      0.0028         0.025676   
     70. D(N  12,C   3,C   2,C   1)   -179.9800         0.025676   
     71. D(C   4,C   3,C   2,H  16)   -179.9928         0.025676   
     72. D(C   4,C   3,C   2,C   1)      0.0244         0.025676   
     73. D(C   6,C   4,C   3,C   2)   -179.9822         0.022431   
     74. D(C   5,C   4,C   3,C   2)     -0.0120         0.022431   
     75. D(C   5,C   4,C   3,N  12)    179.9916         0.022431   
     76. D(C   6,C   4,C   3,N  12)      0.0214         0.022431   
     77. D(H  13,C   5,C   4,C   6)     -0.0479         0.025454   
     78. D(C   0,C   5,C   4,C   6)    179.9482         0.025454   
     79. D(C   0,C   5,C   4,C   3)     -0.0120         0.025454   
     80. D(H  13,C   5,C   0,H  14)      0.0509         0.027750   
     81. D(H  13,C   5,C   0,C   1)   -179.9809         0.027750   
     82. D(H  13,C   5,C   4,C   3)    179.9919         0.025454   
     83. D(C   4,C   5,C   0,H  14)   -179.9452         0.027750   
     84. D(C   4,C   5,C   0,C   1)      0.0230         0.027750   
     85. D(C   9,C   6,C   4,C   5)      0.0121         0.017091   
     86. D(C   9,C   6,C   4,C   3)    179.9761         0.017091   
     87. D(C   7,C   6,C   4,C   5)   -179.9650         0.017091   
     88. D(C   7,C   6,C   4,C   3)     -0.0011         0.017091   
     89. D(N  12,C   7,C   6,C   4)     -0.0197         0.023119   
     90. D(C   8,C   7,C   6,C   9)      0.0105         0.023119   
     91. D(C   8,C   7,C   6,C   4)    179.9925         0.023119   
     92. D(N  12,C   7,C   6,C   9)    179.9984         0.023119   
     93. D(H  17,C   8,C   7,N  12)      0.0095         0.025987   
     94. D(H  17,C   8,C   7,C   6)    179.9943         0.025987   
     95. D(N  11,C   8,C   7,N  12)   -179.9925         0.025987   
     96. D(N  11,C   8,C   7,C   6)     -0.0076         0.025987   
     97. D(H  18,C   9,C   6,C   7)   -179.9964         0.025917   
     98. D(H  18,C   9,C   6,C   4)      0.0284         0.025917   
     99. D(C  10,C   9,C   6,C   7)     -0.0067         0.025917   
    100. D(C  10,C   9,C   6,C   4)   -179.9820         0.025917   
    101. D(H  19,C  10,C   9,H  18)     -0.0268         0.027441   
    102. D(H  19,C  10,C   9,C   6)    179.9834         0.027441   
    103. D(N  11,C  10,C   9,H  18)    179.9896         0.027441   
    104. D(N  11,C  10,C   9,C   6)     -0.0001         0.027441   
    105. D(C   8,N  11,C  10,H  19)   -179.9809         0.032623   
    106. D(C   8,N  11,C  10,C   9)      0.0033         0.032623   
    107. D(C  10,N  11,C   8,H  17)    179.9988         0.037267   
    108. D(C  10,N  11,C   8,C   7)      0.0006         0.037267   
    109. D(H  20,N  12,C   7,C   8)      0.0263         0.026603   
    110. D(C   3,N  12,C   7,C   8)   -179.9802         0.026603   
    111. D(C   3,N  12,C   7,C   6)      0.0336         0.026603   
    112. D(H  20,N  12,C   3,C   4)    179.9592         0.026677   
    113. D(H  20,N  12,C   3,C   2)     -0.0369         0.026677   
    114. D(H  20,N  12,C   7,C   6)   -179.9598         0.026603   
    115. D(C   7,N  12,C   3,C   4)     -0.0343         0.026677   
    116. D(C   7,N  12,C   3,C   2)    179.9696         0.026677   
    -----------------------------------------------------------------

Number of atoms                         .... 21
Number of degrees of freedom            .... 116

         *************************************************************
         *                GEOMETRY OPTIMIZATION CYCLE   1            *
         *************************************************************
---------------------------------
CARTESIAN COORDINATES (ANGSTROEM)
---------------------------------
  C     -0.309834    3.311727   -0.189576
  C     -0.720837    1.970895   -0.108670
  C      0.197805    0.933746   -0.039986
  C      1.553862    1.267669   -0.054236
  C      1.984912    2.612097   -0.135035
  C      1.037871    3.637883   -0.202883
  C      3.434664    2.578604   -0.126652
  C      3.805541    1.220703   -0.041501
  C      5.153716    0.863029   -0.013777
  C      4.453849    3.530204   -0.181136
  C      5.763970    3.072720   -0.147496
  N      6.113738    1.777857   -0.066172
  N      2.662532    0.444976    0.001684
  H      1.355910    4.680154   -0.265468
  H     -1.060723    4.101061   -0.242802
  H     -1.787167    1.738252   -0.099874
  H     -0.129723   -0.105330    0.022605
  H      5.465045   -0.184879    0.052135
  H      4.238877    4.597654   -0.247704
  H      6.593006    3.784337   -0.188238
  H      2.639804   -0.561635    0.064184

----------------------------
CARTESIAN COORDINATES (A.U.)
----------------------------
  NO LB      ZA    FRAG     MASS         X           Y           Z
   0 C     6.0000    0    12.011   -0.585501    6.258257   -0.358247
   1 C     6.0000    0    12.011   -1.362185    3.724451   -0.205357
   2 C     6.0000    0    12.011    0.373796    1.764524   -0.075562
   3 C     6.0000    0    12.011    2.936373    2.395547   -0.102490
   4 C     6.0000    0    12.011    3.750941    4.936147   -0.255179
   5 C     6.0000    0    12.011    1.961292    6.874603   -0.383394
   6 C     6.0000    0    12.011    6.490575    4.872856   -0.239337
   7 C     6.0000    0    12.011    7.191430    2.306795   -0.078425
   8 C     6.0000    0    12.011    9.739112    1.630889   -0.026035
   9 C     6.0000    0    12.011    8.416554    6.671118   -0.342298
  10 C     6.0000    0    12.011   10.892325    5.806599   -0.278728
  11 N     7.0000    0    14.007   11.553291    3.359663   -0.125047
  12 N     7.0000    0    14.007    5.031457    0.840883    0.003182
  13 H     1.0000    0     1.008    2.562299    8.844210   -0.501662
  14 H     1.0000    0     1.008   -2.004475    7.749882   -0.458830
  15 H     1.0000    0     1.008   -3.377257    3.284820   -0.188735
  16 H     1.0000    0     1.008   -0.245141   -0.199045    0.042718
  17 H     1.0000    0     1.008   10.327438   -0.349370    0.098521
  18 H     1.0000    0     1.008    8.010317    8.688307   -0.468093
  19 H     1.0000    0     1.008   12.458976    7.151361   -0.355718
  20 H     1.0000    0     1.008    4.988507   -1.061337    0.121290

--------------------------------
INTERNAL COORDINATES (ANGSTROEM)
--------------------------------
 C      0   0   0     0.000000000000     0.00000000     0.00000000
 C      1   0   0     1.404742072302     0.00000000     0.00000000
 C      2   1   0     1.387190877458   121.51621911     0.00000000
 C      3   2   1     1.396638347404   117.62776833     0.00000000
 C      4   3   2     1.414149408891   121.59031353     0.02436578
 C      1   2   3     1.386673517851   120.62522628     0.00000000
 C      5   4   3     1.450163153408   106.40584439   180.01783325
 C      7   5   4     1.410211239093   106.58914455     0.00000000
 C      8   7   5     1.395089713432   120.14696984   179.99246717
 C      7   5   4     1.395437559558   135.57656981   179.97609644
 C     10   7   5     1.388107509947   117.62231925   180.01802252
 N      9   8   7     1.327138725707   121.43546405     0.00000000
 N      4   3   2     1.381702556373   129.51703656   180.01996671
 H      6   1   2     1.091510189464   120.55299556   180.01906288
 H      1   2   3     1.090740836218   119.48097159   179.95799128
 H      2   1   3     1.091448576032   119.32523358   180.01988433
 H      3   2   1     1.091270146028   121.06316807   180.00381715
 H      9   8   7     1.095162750264   121.41484308   179.99428446
 H     10   7   5     1.090914551902   121.71723938     0.02837659
 H     11  10   7     1.093324860279   120.01687865   179.98343321
 H     13   4   3     1.008805663928   125.34892506   359.96313378

---------------------------
INTERNAL COORDINATES (A.U.)
---------------------------
 C      0   0   0     0.000000000000     0.00000000     0.00000000
 C      1   0   0     2.654577805447     0.00000000     0.00000000
 C      2   1   0     2.621410853869   121.51621911     0.00000000
 C      3   2   1     2.639263984725   117.62776833     0.00000000
 C      4   3   2     2.672355095251   121.59031353     0.02436578
 C      1   2   3     2.620433185899   120.62522628     0.00000000
 C      5   4   3     2.740411209445   106.40584439   180.01783325
 C      7   5   4     2.664913032863   106.58914455     0.00000000
 C      8   7   5     2.636337490636   120.14696984   179.99246717
 C      7   5   4     2.636994824552   135.57656981   179.97609644
 C     10   7   5     2.623143038239   117.62231925   180.01802252
 N      9   8   7     2.507928733307   121.43546405     0.00000000
 N      4   3   2     2.611039430084   129.51703656   180.01996671
 H      6   1   2     2.062655330471   120.55299556   180.01906288
 H      1   2   3     2.061201463537   119.48097159   179.95799128
 H      2   1   3     2.062538897958   119.32523358   180.01988433
 H      3   2   1     2.062201714117   121.06316807   180.00381715
 H      9   8   7     2.069557670070   121.41484308   179.99428446
 H     10   7   5     2.061529738604   121.71723938     0.02837659
 H     11  10   7     2.066084561335   120.01687865   179.98343321
 H     13   4   3     1.906366427172   125.34892506   359.96313378

---------------------
BASIS SET INFORMATION
---------------------
There are 3 groups of distinct atoms

 Group   1 Type C   : 17s4p1d contracted to 3s2p1d pattern {881/31/1}
 Group   2 Type N   : 17s4p1d contracted to 3s2p1d pattern {881/31/1}
 Group   3 Type H   : 4s1p contracted to 2s1p pattern {31/1}

Atom   0C    basis set group =>   1
Atom   1C    basis set group =>   1
Atom   2C    basis set group =>   1
Atom   3C    basis set group =>   1
Atom   4C    basis set group =>   1
Atom   5C    basis set group =>   1
Atom   6C    basis set group =>   1
Atom   7C    basis set group =>   1
Atom   8C    basis set group =>   1
Atom   9C    basis set group =>   1
Atom  10C    basis set group =>   1
Atom  11N    basis set group =>   2
Atom  12N    basis set group =>   2
Atom  13H    basis set group =>   3
Atom  14H    basis set group =>   3
Atom  15H    basis set group =>   3
Atom  16H    basis set group =>   3
Atom  17H    basis set group =>   3
Atom  18H    basis set group =>   3
Atom  19H    basis set group =>   3
Atom  20H    basis set group =>   3
---------------------------------
AUXILIARY/J BASIS SET INFORMATION
---------------------------------
There are 3 groups of distinct atoms

 Group   1 Type C   : 12s5p4d2f1g contracted to 6s4p3d1f1g pattern {711111/2111/211/2/1}
 Group   2 Type N   : 12s5p4d2f1g contracted to 6s4p3d1f1g pattern {711111/2111/211/2/1}
 Group   3 Type H   : 5s2p1d contracted to 3s1p1d pattern {311/2/1}

Atom   0C    basis set group =>   1
Atom   1C    basis set group =>   1
Atom   2C    basis set group =>   1
Atom   3C    basis set group =>   1
Atom   4C    basis set group =>   1
Atom   5C    basis set group =>   1
Atom   6C    basis set group =>   1
Atom   7C    basis set group =>   1
Atom   8C    basis set group =>   1
Atom   9C    basis set group =>   1
Atom  10C    basis set group =>   1
Atom  11N    basis set group =>   2
Atom  12N    basis set group =>   2
Atom  13H    basis set group =>   3
Atom  14H    basis set group =>   3
Atom  15H    basis set group =>   3
Atom  16H    basis set group =>   3
Atom  17H    basis set group =>   3
Atom  18H    basis set group =>   3
Atom  19H    basis set group =>   3
Atom  20H    basis set group =>   3


           ************************************************************
           *        Program running with 16 parallel MPI-processes    *
           *              working on a common directory               *
           ************************************************************
------------------------------------------------------------------------------
                           ORCA GTO INTEGRAL CALCULATION
                           -- RI-GTO INTEGRALS CHOSEN --
------------------------------------------------------------------------------
------------------------------------------------------------------------------
                   ___                                                        
                  /   \      - P O W E R E D   B Y -                         
                 /     \                                                     
                 |  |  |   _    _      __       _____    __    __             
                 |  |  |  | |  | |    /  \     |  _  \  |  |  /  |          
                  \  \/   | |  | |   /    \    | | | |  |  | /  /          
                 / \  \   | |__| |  /  /\  \   | |_| |  |  |/  /          
                |  |  |   |  __  | /  /__\  \  |    /   |      \           
                |  |  |   | |  | | |   __   |  |    \   |  |\   \          
                \     /   | |  | | |  |  |  |  | |\  \  |  | \   \       
                 \___/    |_|  |_| |__|  |__|  |_| \__\ |__|  \__/        
                                                                              
                      - O R C A' S   B I G   F R I E N D -                    
                                      &                                       
                       - I N T E G R A L  F E E D E R -                       
                                                                              
 v1 FN, 2020, v2 2021                                                         
------------------------------------------------------------------------------


Reading SHARK input file beta-carboline_opt_iroot_1.SHARKINP.tmp ... ok
----------------------
SHARK INTEGRAL PACKAGE
----------------------

Number of atoms                             ...     21
Number of basis functions                   ...    300
Number of shells                            ...    180
Maximum angular momentum                    ...      2
Integral batch strategy                     ... SHARK/LIBINT Hybrid
RI-J (if used) integral strategy            ... SPLIT-RIJ (Revised 2003 algorithm where possible)
Printlevel                                  ...      1
Contraction scheme used                     ... PARTIAL GENERAL contraction
Coulomb Range Separation                    ... NOT USED
Exchange Range Separation                   ... Long Range
   Mu parameter                             ...  0.330000
   Scaling (regular/separated)              ...  0.190000  0.460000
Finite Nucleus Model                        ... NOT USED
Auxiliary Coulomb fitting basis             ... AVAILABLE
   # of basis functions in Aux-J            ...    725
   # of shells in Aux-J                     ...    235
   Maximum angular momentum in Aux-J        ...      4
Auxiliary J/K fitting basis                 ... NOT available
Auxiliary Correlation fitting basis         ... NOT available
Auxiliary 'external' fitting basis          ... NOT available
Integral threshold                          ...     2.500000e-11
Primitive cut-off                           ...     2.500000e-12
Primitive pair pre-selection threshold      ...     2.500000e-12

Calculating pre-screening integrals         ... done (  0.0 sec) Dimension = 180
Calculating pre-screening integrals (ORCA)  ... done (  0.1 sec) Dimension = 102
Organizing shell pair data                  ... done (  0.0 sec)
Shell pair information
Total number of shell pairs                 ...     16290
Shell pairs after pre-screening             ...     10291
Total number of primitive shell pairs       ...     24816
Primitive shell pairs kept                  ...     13939
          la=0 lb=0:   4415 shell pairs
          la=1 lb=0:   3531 shell pairs
          la=1 lb=1:    536 shell pairs
          la=2 lb=0:   1332 shell pairs
          la=2 lb=1:    395 shell pairs
          la=2 lb=2:     82 shell pairs

Calculating one electron integrals          ... done (  0.0 sec)
Calculating RI/J V-Matrix + Cholesky decomp.... done (  0.0 sec)
Calculating Nuclear repulsion               ... done (  0.0 sec) ENN=    706.608571356231 Eh

SHARK setup successfully completed in   0.4 seconds

Maximum memory used throughout the entire GTOINT-calculation: 20.9 MB


           ************************************************************
           *        Program running with 16 parallel MPI-processes    *
           *              working on a common directory               *
           ************************************************************
-------------------------------------------------------------------------------
                                 ORCA SCF
-------------------------------------------------------------------------------

------------
SCF SETTINGS
------------
Hamiltonian:
 Density Functional     Method          .... DFT(GTOs)
 Exchange Functional    Exchange        .... WB88
 Correlation Functional Correlation     .... LYP
 LDA part of GGA corr.  LDAOpt          .... VWN-5
 Gradients option       PostSCFGGA      .... off
 Hybrid DFT is turned on
   Fraction HF Exchange ScalHFX         ....  0.190000
   Scaling of DF-GGA-X  ScalDFX         ....  0.350000
   Scaling of DF-GGA-C  ScalDFC         ....  0.810000
   Scaling of DF-LDA-C  ScalLDAC        ....  1.000000
   Perturbative correction              ....  0.000000
   Density functional embedding theory  .... OFF
 Long-range corrected/Screened/Range-Separated Hybrid DFT is turned on
   Amount of maximum screened exact exchange              ....  0.460000
   Range separation parameter mu (erf(mu*r12)/r12)        ....  0.330000
 RI-approximation to the Coulomb term is turned on
   Number of AuxJ basis functions       .... 725
   RIJ-COSX (HFX calculated with COS-X)).... on


General Settings:
 Integral files         IntName         .... beta-carboline_opt_iroot_1
 Hartree-Fock type      HFTyp           .... RHF
 Total Charge           Charge          ....    0
 Multiplicity           Mult            ....    1
 Number of Electrons    NEL             ....   88
 Basis Dimension        Dim             ....  222
 Nuclear Repulsion      ENuc            ....    706.6085713562 Eh

Convergence Acceleration:
 DIIS                   CNVDIIS         .... on
   Start iteration      DIISMaxIt       ....    12
   Startup error        DIISStart       ....  0.200000
   # of expansion vecs  DIISMaxEq       ....     5
   Bias factor          DIISBfac        ....   1.050
   Max. coefficient     DIISMaxC        ....  10.000
 Trust-Rad. Augm. Hess. CNVTRAH         .... auto
   Auto Start mean grad. ratio tolernc. ....  1.125000
   Auto Start start iteration           ....    20
   Auto Start num. interpolation iter.  ....    10
   Max. Number of Micro iterations      ....    16
   Max. Number of Macro iterations      .... Maxiter - #DIIS iter
   Number of Davidson start vectors     ....     2
   Converg. threshold I  (grad. norm)   ....   1.000e-05
   Converg. threshold II (energy diff.) ....   1.000e-08
   Grad. Scal. Fac. for Micro threshold ....   0.100
   Minimum threshold for Micro iter.    ....   0.010
   NR start threshold (gradient norm)   ....   0.001
   Initial trust radius                 ....   0.400
   Minimum AH scaling param. (alpha)    ....   1.000
   Maximum AH scaling param. (alpha)    .... 1000.000
   Orbital update algorithm             .... Taylor
   White noise on init. David. guess    .... on
   Maximum white noise                  ....   0.010
   Quad. conv. algorithm                .... NR
 SOSCF                  CNVSOSCF        .... on
   Start iteration      SOSCFMaxIt      ....   150
   Startup grad/error   SOSCFStart      ....  0.003300
 Level Shifting         CNVShift        .... on
   Level shift para.    LevelShift      ....    0.2500
   Turn off err/grad.   ShiftErr        ....    0.0010
 Zerner damping         CNVZerner       .... off
 Static damping         CNVDamp         .... on
   Fraction old density DampFac         ....    0.7000
   Max. Damping (<1)    DampMax         ....    0.9800
   Min. Damping (>=0)   DampMin         ....    0.0000
   Turn off err/grad.   DampErr         ....    0.1000
 Fernandez-Rico         CNVRico         .... off

SCF Procedure:
 Maximum # iterations   MaxIter         ....   125
 SCF integral mode      SCFMode         .... Direct
   Integral package                     .... SHARK and LIBINT hybrid scheme
 Reset frequency        DirectResetFreq ....    20
 Integral Threshold     Thresh          ....  2.500e-11 Eh
 Primitive CutOff       TCut            ....  2.500e-12 Eh

Convergence Tolerance:
 Convergence Check Mode ConvCheckMode   .... Total+1el-Energy
 Convergence forced     ConvForced      .... 1
 Energy Change          TolE            ....  1.000e-08 Eh
 1-El. energy change                    ....  1.000e-05 Eh
 Orbital Gradient       TolG            ....  1.000e-05
 Orbital Rotation angle TolX            ....  1.000e-05
 DIIS Error             TolErr          ....  5.000e-07


Diagonalization of the overlap matrix:
Smallest eigenvalue                        ... 1.787e-04
Time for diagonalization                   ...    0.156 sec
Threshold for overlap eigenvalues          ... 1.000e-08
Number of eigenvalues below threshold      ... 0
Time for construction of square roots      ...    0.012 sec
Total time needed                          ...    0.169 sec

Time for model grid setup =    0.111 sec

------------------------------
INITIAL GUESS: MODEL POTENTIAL
------------------------------
Loading Hartree-Fock densities                     ... done
Calculating cut-offs                               ... done
Initializing the effective Hamiltonian             ... done
Setting up the integral package (SHARK)            ... done
Starting the Coulomb interaction                   ... done (   0.1 sec)
Reading the grid                                   ... done
Mapping shells                                     ... done
Starting the XC term evaluation                    ... done (   0.0 sec)
  promolecular density results
     # of electrons  =     87.996131000
     EX              =    -71.746116587
     EC              =     -2.955835613
     EX+EC           =    -74.701952201
Transforming the Hamiltonian                       ... done (   0.0 sec)
Diagonalizing the Hamiltonian                      ... done (   0.0 sec)
Back transforming the eigenvectors                 ... done (   0.0 sec)
Now organizing SCF variables                       ... done
                      ------------------
                      INITIAL GUESS DONE (   0.2 sec)
                      ------------------
-------------------
DFT GRID GENERATION
-------------------

General Integration Accuracy     IntAcc      ... 4.388
Radial Grid Type                 RadialGrid  ... OptM3 with GC (2021)
Angular Grid (max. ang.)         AngularGrid ... 4 (Lebedev-302)
Angular grid pruning method      GridPruning ... 4 (adaptive)
Weight generation scheme         WeightScheme... Becke
Basis function cutoff            BFCut       ... 1.0000e-11
Integration weight cutoff        WCut        ... 1.0000e-14
Angular grids for H and He will be reduced by one unit
Partially contracted basis set               ... off
Rotationally invariant grid construction     ... off

Total number of grid points                  ...   103518
Total number of batches                      ...     1628
Average number of points per batch           ...       63
Average number of grid points per atom       ...     4929
Time for grid setup =    0.518 sec

--------------------
COSX GRID GENERATION
--------------------

GRIDX 1
-------
General Integration Accuracy     IntAcc      ... 3.816
Radial Grid Type                 RadialGrid  ... OptM3 with GC (2021)
Angular Grid (max. ang.)         AngularGrid ... 1 (Lebedev-50)
Angular grid pruning method      GridPruning ... 4 (adaptive)
Weight generation scheme         WeightScheme... Becke
Basis function cutoff            BFCut       ... 1.0000e-11
Integration weight cutoff        WCut        ... 1.0000e-14
Angular grids for H and He will be reduced by one unit
Partially contracted basis set               ... on
Rotationally invariant grid construction     ... off

Total number of grid points                  ...    13187
Total number of batches                      ...      215
Average number of points per batch           ...       61
Average number of grid points per atom       ...      628
UseSFitting                                  ... on

GRIDX 2
-------
General Integration Accuracy     IntAcc      ... 4.020
Radial Grid Type                 RadialGrid  ... OptM3 with GC (2021)
Angular Grid (max. ang.)         AngularGrid ... 2 (Lebedev-110)
Angular grid pruning method      GridPruning ... 4 (adaptive)
Weight generation scheme         WeightScheme... Becke
Basis function cutoff            BFCut       ... 1.0000e-11
Integration weight cutoff        WCut        ... 1.0000e-14
Angular grids for H and He will be reduced by one unit
Partially contracted basis set               ... on
Rotationally invariant grid construction     ... off

Total number of grid points                  ...    29186
Total number of batches                      ...      463
Average number of points per batch           ...       63
Average number of grid points per atom       ...     1390
UseSFitting                                  ... on

GRIDX 3
-------
General Integration Accuracy     IntAcc      ... 4.338
Radial Grid Type                 RadialGrid  ... OptM3 with GC (2021)
Angular Grid (max. ang.)         AngularGrid ... 3 (Lebedev-194)
Angular grid pruning method      GridPruning ... 4 (adaptive)
Weight generation scheme         WeightScheme... Becke
Basis function cutoff            BFCut       ... 1.0000e-11
Integration weight cutoff        WCut        ... 1.0000e-14
Angular grids for H and He will be reduced by one unit
Partially contracted basis set               ... on
Rotationally invariant grid construction     ... off

Total number of grid points                  ...    64146
Total number of batches                      ...     1015
Average number of points per batch           ...       63
Average number of grid points per atom       ...     3055
UseSFitting                                  ... on

Time for X-Grid setup             =    0.504 sec

 re-compute Schwartz prescreening matrix in partically contracted basis (1) ...done (   0.239 sec)
--------------
SCF ITERATIONS
--------------
ITER       Energy         Delta-E        Max-DP      RMS-DP      [F,P]     Damp
               ***  Starting incremental Fock matrix formation  ***
  0   -533.0309867554   0.000000000000 0.05235406  0.00170663  0.1636813 0.7000
  1   -533.1185547520  -0.087567996610 0.03656367  0.00132394  0.0870730 0.7000
                               ***Turning on DIIS***
  2   -533.1632638669  -0.044709114891 0.07659933  0.00265836  0.0482254 0.0000
  3   -533.2347005972  -0.071436730326 0.02772634  0.00075225  0.0405750 0.0000
  4   -533.2460099032  -0.011309306057 0.00553288  0.00020288  0.0066341 0.0000
  5   -533.2464044299  -0.000394526629 0.00342978  0.00007767  0.0045247 0.0000
                      *** Initiating the SOSCF procedure ***
                           *** Shutting down DIIS ***
                      *** Re-Reading the Fockian *** 
                      *** Removing any level shift *** 
ITER      Energy       Delta-E        Grad      Rot      Max-DP    RMS-DP
  6   -533.24646021  -0.0000557773  0.000560  0.000560  0.001292  0.000046
               *** Restarting incremental Fock matrix formation ***
  7   -533.24659806  -0.0001378576  0.000237  0.000903  0.000524  0.000020
  8   -533.24659840  -0.0000003311  0.000183  0.000300  0.000392  0.000009
  9   -533.24659968  -0.0000012803  0.000034  0.000161  0.000131  0.000003
 10   -533.24659969  -0.0000000173  0.000022  0.000043  0.000041  0.000001
 11   -533.24659972  -0.0000000296  0.000008  0.000017  0.000016  0.000000
 12   -533.24659972   0.0000000056  0.000004  0.000007  0.000006  0.000000
                  ***Gradient check signals convergence***
              ***Rediagonalizing the Fockian in SOSCF/NRSCF***

               *****************************************************
               *                     SUCCESS                       *
               *           SCF CONVERGED AFTER  13 CYCLES          *
               *****************************************************

Old exchange energy                            =    -20.769815729 Eh
New exchange energy                            =    -20.769849246 Eh
Exchange energy change after final integration =     -0.000033517 Eh
Total energy after final integration           =   -533.246633241 Eh
Final COS-X integration done in                =     2.758 sec

----------------
TOTAL SCF ENERGY
----------------

Total Energy       :         -533.24663324 Eh          -14510.37858 eV

Components:
Nuclear Repulsion  :          706.60857136 Eh           19227.79675 eV
Electronic Energy  :        -1239.85520460 Eh          -33738.17533 eV
One Electron Energy:        -2121.40644515 Eh          -57726.40413 eV
Two Electron Energy:          881.55124055 Eh           23988.22879 eV
Max COSX asymmetry :            0.00000115 Eh               0.00003 eV

Virial components:
Potential Energy   :        -1063.14322876 Eh          -28929.59801 eV
Kinetic Energy     :          529.89659552 Eh           14419.21942 eV
Virial Ratio       :            2.00632206


DFT components:
N(Alpha)           :       44.000010426575 electrons
N(Beta)            :       44.000010426575 electrons
N(Total)           :       88.000020853151 electrons
E(XC)              :      -55.536964730974 Eh       
DFET-embed. en.    :        0.000000000000 Eh       

---------------
SCF CONVERGENCE
---------------

  Last Energy change         ...   -6.9118e-09  Tolerance :   1.0000e-08
  Last MAX-Density change    ...    4.4409e-15  Tolerance :   1.0000e-07
  Last RMS-Density change    ...    5.3152e-17  Tolerance :   5.0000e-09
  Last Orbital Gradient      ...    1.3399e-06  Tolerance :   1.0000e-05
  Last Orbital Rotation      ...    3.9459e-06  Tolerance :   1.0000e-05

             **** THE GBW FILE WAS UPDATED (beta-carboline_opt_iroot_1.gbw) ****
             **** DENSITY beta-carboline_opt_iroot_1.scfp WAS UPDATED ****
             **** ENERGY FILE WAS UPDATED (beta-carboline_opt_iroot_1.en.tmp) ****
             **** THE GBW FILE WAS UPDATED (beta-carboline_opt_iroot_1.gbw) ****
             **** DENSITY beta-carboline_opt_iroot_1.scfp WAS UPDATED ****
----------------
ORBITAL ENERGIES
----------------

  NO   OCC          E(Eh)            E(eV) 
   0   2.0000     -14.452535      -393.2735 
   1   2.0000     -14.393154      -391.6576 
   2   2.0000     -10.309044      -280.5233 
   3   2.0000     -10.304325      -280.3949 
   4   2.0000     -10.294421      -280.1254 
   5   2.0000     -10.282864      -279.8110 
   6   2.0000     -10.275056      -279.5985 
   7   2.0000     -10.271931      -279.5134 
   8   2.0000     -10.271786      -279.5095 
   9   2.0000     -10.271272      -279.4955 
  10   2.0000     -10.268782      -279.4278 
  11   2.0000     -10.268282      -279.4142 
  12   2.0000     -10.262412      -279.2544 
  13   2.0000      -1.077610       -29.3232 
  14   2.0000      -1.015186       -27.6246 
  15   2.0000      -0.938247       -25.5310 
  16   2.0000      -0.893744       -24.3200 
  17   2.0000      -0.843383       -22.9496 
  18   2.0000      -0.828281       -22.5387 
  19   2.0000      -0.818199       -22.2643 
  20   2.0000      -0.740738       -20.1565 
  21   2.0000      -0.697607       -18.9829 
  22   2.0000      -0.688042       -18.7226 
  23   2.0000      -0.663608       -18.0577 
  24   2.0000      -0.620537       -16.8857 
  25   2.0000      -0.589615       -16.0442 
  26   2.0000      -0.582855       -15.8603 
  27   2.0000      -0.544978       -14.8296 
  28   2.0000      -0.530618       -14.4389 
  29   2.0000      -0.517362       -14.0781 
  30   2.0000      -0.509713       -13.8700 
  31   2.0000      -0.507859       -13.8196 
  32   2.0000      -0.503624       -13.7043 
  33   2.0000      -0.471336       -12.8257 
  34   2.0000      -0.449664       -12.2360 
  35   2.0000      -0.439666       -11.9639 
  36   2.0000      -0.419540       -11.4163 
  37   2.0000      -0.410778       -11.1778 
  38   2.0000      -0.409675       -11.1478 
  39   2.0000      -0.362171        -9.8552 
  40   2.0000      -0.319472        -8.6933 
  41   2.0000      -0.314701        -8.5635 
  42   2.0000      -0.284765        -7.7489 
  43   2.0000      -0.264092        -7.1863 
  44   0.0000      -0.001906        -0.0519 
  45   0.0000       0.041279         1.1233 
  46   0.0000       0.066528         1.8103 
  47   0.0000       0.079869         2.1733 
  48   0.0000       0.093994         2.5577 
  49   0.0000       0.106831         2.9070 
  50   0.0000       0.122110         3.3228 
  51   0.0000       0.146676         3.9913 
  52   0.0000       0.149320         4.0632 
  53   0.0000       0.163719         4.4550 
  54   0.0000       0.180817         4.9203 
  55   0.0000       0.210566         5.7298 
  56   0.0000       0.212149         5.7729 
  57   0.0000       0.246086         6.6963 
  58   0.0000       0.246204         6.6996 
  59   0.0000       0.280371         7.6293 
  60   0.0000       0.290231         7.8976 
  61   0.0000       0.302628         8.2349 
  62   0.0000       0.322713         8.7815 
  63   0.0000       0.347581         9.4581 
  64   0.0000       0.350254         9.5309 
  65   0.0000       0.369076        10.0431 
  66   0.0000       0.391765        10.6605 
  67   0.0000       0.412737        11.2312 
  68   0.0000       0.436287        11.8720 
  69   0.0000       0.441885        12.0243 
  70   0.0000       0.459341        12.4993 
  71   0.0000       0.502269        13.6674 
  72   0.0000       0.504669        13.7327 
  73   0.0000       0.514023        13.9873 
  74   0.0000       0.525124        14.2894 
  75   0.0000       0.525268        14.2933 
  76   0.0000       0.543503        14.7895 
  77   0.0000       0.549987        14.9659 
  78   0.0000       0.556623        15.1465 
  79   0.0000       0.561810        15.2876 
  80   0.0000       0.564884        15.3713 
  81   0.0000       0.574693        15.6382 
  82   0.0000       0.574865        15.6429 
  83   0.0000       0.579499        15.7690 
  84   0.0000       0.581164        15.8143 
  85   0.0000       0.594973        16.1900 
  86   0.0000       0.610497        16.6125 
  87   0.0000       0.627742        17.0817 
  88   0.0000       0.628825        17.1112 
  89   0.0000       0.629336        17.1251 
  90   0.0000       0.630086        17.1455 
  91   0.0000       0.676473        18.4078 
  92   0.0000       0.682605        18.5746 
  93   0.0000       0.694214        18.8905 
  94   0.0000       0.701683        19.0938 
  95   0.0000       0.707512        19.2524 
  96   0.0000       0.718496        19.5513 
  97   0.0000       0.732571        19.9343 
  98   0.0000       0.734384        19.9836 
  99   0.0000       0.757201        20.6045 
 100   0.0000       0.775285        21.0966 
 101   0.0000       0.785442        21.3730 
 102   0.0000       0.788727        21.4624 
 103   0.0000       0.796287        21.6681 
 104   0.0000       0.846302        23.0290 
 105   0.0000       0.885869        24.1057 
 106   0.0000       0.901986        24.5443 
 107   0.0000       0.902231        24.5510 
 108   0.0000       0.931011        25.3341 
 109   0.0000       0.944839        25.7104 
 110   0.0000       0.948272        25.8038 
 111   0.0000       0.958271        26.0759 
 112   0.0000       0.959813        26.1178 
 113   0.0000       0.975592        26.5472 
 114   0.0000       0.985322        26.8120 
 115   0.0000       1.000335        27.2205 
 116   0.0000       1.004305        27.3285 
 117   0.0000       1.026651        27.9366 
 118   0.0000       1.038075        28.2475 
 119   0.0000       1.060261        28.8512 
 120   0.0000       1.069411        29.1002 
 121   0.0000       1.074155        29.2292 
 122   0.0000       1.086878        29.5754 
 123   0.0000       1.087777        29.5999 
 124   0.0000       1.100079        29.9347 
 125   0.0000       1.117429        30.4068 
 126   0.0000       1.135582        30.9008 
 127   0.0000       1.144470        31.1426 
 128   0.0000       1.155953        31.4551 
 129   0.0000       1.181984        32.1634 
 130   0.0000       1.198186        32.6043 
 131   0.0000       1.208625        32.8884 
 132   0.0000       1.219987        33.1975 
 133   0.0000       1.268731        34.5239 
 134   0.0000       1.280553        34.8456 
 135   0.0000       1.290989        35.1296 
 136   0.0000       1.351883        36.7866 
 137   0.0000       1.376814        37.4650 
 138   0.0000       1.397122        38.0176 
 139   0.0000       1.405973        38.2585 
 140   0.0000       1.435778        39.0695 
 141   0.0000       1.441647        39.2292 
 142   0.0000       1.498602        40.7790 
 143   0.0000       1.532231        41.6941 
 144   0.0000       1.550711        42.1970 
 145   0.0000       1.553456        42.2717 
 146   0.0000       1.568120        42.6707 
 147   0.0000       1.571865        42.7726 
 148   0.0000       1.580764        43.0148 
 149   0.0000       1.596472        43.4422 
 150   0.0000       1.602458        43.6051 
 151   0.0000       1.622836        44.1596 
 152   0.0000       1.634714        44.4828 
 153   0.0000       1.649253        44.8785 
 154   0.0000       1.666185        45.3392 
 155   0.0000       1.679411        45.6991 
 156   0.0000       1.687096        45.9082 
 157   0.0000       1.700982        46.2861 
 158   0.0000       1.709542        46.5190 
 159   0.0000       1.729682        47.0670 
 160   0.0000       1.740010        47.3481 
 161   0.0000       1.741589        47.3911 
 162   0.0000       1.770695        48.1831 
 163   0.0000       1.792070        48.7647 
 164   0.0000       1.804359        49.0991 
 165   0.0000       1.806395        49.1545 
 166   0.0000       1.816798        49.4376 
 167   0.0000       1.824007        49.6337 
 168   0.0000       1.824419        49.6450 
 169   0.0000       1.848579        50.3024 
 170   0.0000       1.860787        50.6346 
 171   0.0000       1.878437        51.1149 
 172   0.0000       1.884877        51.2901 
 173   0.0000       1.902070        51.7579 
 174   0.0000       1.916835        52.1597 
 175   0.0000       1.916896        52.1614 
 176   0.0000       1.928767        52.4844 
 177   0.0000       1.947597        52.9968 
 178   0.0000       1.974187        53.7204 
 179   0.0000       2.005623        54.5758 
 180   0.0000       2.013882        54.8005 
 181   0.0000       2.016952        54.8840 
 182   0.0000       2.026643        55.1478 
 183   0.0000       2.066180        56.2236 
 184   0.0000       2.082197        56.6595 
 185   0.0000       2.093239        56.9599 
 186   0.0000       2.114529        57.5393 
 187   0.0000       2.125520        57.8383 
 188   0.0000       2.152271        58.5663 
 189   0.0000       2.205474        60.0140 
 190   0.0000       2.215971        60.2996 
 191   0.0000       2.256008        61.3891 
 192   0.0000       2.281969        62.0955 
 193   0.0000       2.287797        62.2541 
 194   0.0000       2.327917        63.3458 
 195   0.0000       2.336113        63.5689 
 196   0.0000       2.341212        63.7076 
 197   0.0000       2.400039        65.3084 
 198   0.0000       2.424572        65.9760 
 199   0.0000       2.457192        66.8636 
 200   0.0000       2.468884        67.1817 
 201   0.0000       2.495397        67.9032 
 202   0.0000       2.503073        68.1121 
 203   0.0000       2.520665        68.5908 
 204   0.0000       2.535639        68.9983 
 205   0.0000       2.583004        70.2871 
 206   0.0000       2.631454        71.6055 
 207   0.0000       2.650371        72.1203 
 208   0.0000       2.694681        73.3260 
 209   0.0000       2.734727        74.4157 
 210   0.0000       2.764250        75.2191 
 211   0.0000       2.800585        76.2078 
 212   0.0000       2.812124        76.5218 
 213   0.0000       2.868663        78.0603 
 214   0.0000       2.922165        79.5162 
 215   0.0000       2.939933        79.9996 
 216   0.0000       2.966362        80.7188 
 217   0.0000       3.065070        83.4048 
 218   0.0000       3.093282        84.1725 
 219   0.0000       3.335189        90.7551 
 220   0.0000       3.501224        95.2732 
 221   0.0000       3.643719        99.1506 

                    ********************************
                    * MULLIKEN POPULATION ANALYSIS *
                    ********************************

-----------------------
MULLIKEN ATOMIC CHARGES
-----------------------
   0 C :    0.032947
   1 C :    0.040994
   2 C :    0.005159
   3 C :    0.079963
   4 C :    0.043141
   5 C :   -0.026483
   6 C :    0.108309
   7 C :    0.015637
   8 C :    0.085782
   9 C :   -0.083855
  10 C :    0.088684
  11 N :   -0.152257
  12 N :   -0.155737
  13 H :   -0.036188
  14 H :   -0.025559
  15 H :   -0.022868
  16 H :   -0.031872
  17 H :   -0.014043
  18 H :   -0.030792
  19 H :   -0.007050
  20 H :    0.086088
Sum of atomic charges:   -0.0000000

--------------------------------
MULLIKEN REDUCED ORBITAL CHARGES
--------------------------------
  0 C s       :     3.078728  s :     3.078728
      pz      :     1.015894  p :     2.822954
      px      :     0.917539
      py      :     0.889521
      dz2     :     0.003132  d :     0.065371
      dxz     :     0.008986
      dyz     :     0.007844
      dx2y2   :     0.018603
      dxy     :     0.026806
  1 C s       :     3.099384  s :     3.099384
      pz      :     0.966536  p :     2.792081
      px      :     0.864832
      py      :     0.960713
      dz2     :     0.003254  d :     0.067541
      dxz     :     0.004730
      dyz     :     0.014372
      dx2y2   :     0.025268
      dxy     :     0.019917
  2 C s       :     3.076603  s :     3.076603
      pz      :     1.042524  p :     2.854291
      px      :     0.981744
      py      :     0.830024
      dz2     :     0.003064  d :     0.063947
      dxz     :     0.012513
      dyz     :     0.005235
      dx2y2   :     0.025160
      dxy     :     0.017975
  3 C s       :     3.062803  s :     3.062803
      pz      :     0.967117  p :     2.739427
      px      :     0.765591
      py      :     1.006719
      dz2     :     0.006747  d :     0.117807
      dxz     :     0.023806
      dyz     :     0.017073
      dx2y2   :     0.030289
      dxy     :     0.039893
  4 C s       :     3.119855  s :     3.119855
      pz      :     1.027662  p :     2.754836
      px      :     0.822581
      py      :     0.904593
      dz2     :     0.005035  d :     0.082168
      dxz     :     0.013772
      dyz     :     0.011753
      dx2y2   :     0.028466
      dxy     :     0.023140
  5 C s       :     3.156603  s :     3.156603
      pz      :     0.967861  p :     2.802049
      px      :     0.954380
      py      :     0.879807
      dz2     :     0.003066  d :     0.067831
      dxz     :     0.014423
      dyz     :     0.005484
      dx2y2   :     0.022762
      dxy     :     0.022097
  6 C s       :     3.116673  s :     3.116673
      pz      :     0.981601  p :     2.689916
      px      :     0.791213
      py      :     0.917102
      dz2     :     0.004962  d :     0.085101
      dxz     :     0.016200
      dyz     :     0.011719
      dx2y2   :     0.029447
      dxy     :     0.022773
  7 C s       :     3.090367  s :     3.090367
      pz      :     0.992884  p :     2.780265
      px      :     0.781164
      py      :     1.006217
      dz2     :     0.006754  d :     0.113732
      dxz     :     0.022622
      dyz     :     0.016203
      dx2y2   :     0.030302
      dxy     :     0.037850
  8 C s       :     3.037833  s :     3.037833
      pz      :     0.997661  p :     2.780631
      px      :     0.932683
      py      :     0.850286
      dz2     :     0.004042  d :     0.095753
      dxz     :     0.016446
      dyz     :     0.008018
      dx2y2   :     0.041010
      dxy     :     0.026237
  9 C s       :     3.166939  s :     3.166939
      pz      :     0.993830  p :     2.852489
      px      :     0.962584
      py      :     0.896074
      dz2     :     0.003135  d :     0.064427
      dxz     :     0.013017
      dyz     :     0.005310
      dx2y2   :     0.023892
      dxy     :     0.019072
 10 C s       :     3.040766  s :     3.040766
      pz      :     0.984140  p :     2.775329
      px      :     0.916207
      py      :     0.874982
      dz2     :     0.004218  d :     0.095220
      dxz     :     0.009115
      dyz     :     0.013843
      dx2y2   :     0.026198
      dxy     :     0.041846
 11 N s       :     3.490941  s :     3.490941
      pz      :     1.087096  p :     3.620682
      px      :     1.518954
      py      :     1.014632
      dz2     :     0.004501  d :     0.040634
      dxz     :     0.006068
      dyz     :     0.007519
      dx2y2   :     0.009236
      dxy     :     0.013310
 12 N s       :     3.398978  s :     3.398978
      pz      :     1.617707  p :     3.723174
      px      :     1.107434
      py      :     0.998033
      dz2     :     0.002465  d :     0.033585
      dxz     :     0.007242
      dyz     :     0.002549
      dx2y2   :     0.011562
      dxy     :     0.009767
 13 H s       :     1.008515  s :     1.008515
      pz      :     0.005755  p :     0.027673
      px      :     0.005082
      py      :     0.016836
 14 H s       :     0.997447  s :     0.997447
      pz      :     0.006151  p :     0.028112
      px      :     0.010613
      py      :     0.011348
 15 H s       :     0.995022  s :     0.995022
      pz      :     0.005750  p :     0.027847
      px      :     0.017432
      py      :     0.004664
 16 H s       :     1.003502  s :     1.003502
      pz      :     0.006406  p :     0.028369
      px      :     0.005371
      py      :     0.016592
 17 H s       :     0.987287  s :     0.987287
      pz      :     0.005586  p :     0.026755
      px      :     0.004557
      py      :     0.016612
 18 H s       :     1.002815  s :     1.002815
      pz      :     0.005883  p :     0.027977
      px      :     0.004374
      py      :     0.017721
 19 H s       :     0.980465  s :     0.980465
      pz      :     0.005467  p :     0.026585
      px      :     0.012540
      py      :     0.008578
 20 H s       :     0.859449  s :     0.859449
      pz      :     0.015138  p :     0.054463
      px      :     0.006815
      py      :     0.032510


                     *******************************
                     * LOEWDIN POPULATION ANALYSIS *
                     *******************************

----------------------
LOEWDIN ATOMIC CHARGES
----------------------
   0 C :   -0.047921
   1 C :   -0.018832
   2 C :   -0.056782
   3 C :   -0.021668
   4 C :   -0.048707
   5 C :   -0.012572
   6 C :   -0.028074
   7 C :   -0.049294
   8 C :   -0.075265
   9 C :   -0.039999
  10 C :   -0.066876
  11 N :    0.039060
  12 N :    0.169525
  13 H :    0.030504
  14 H :    0.028515
  15 H :    0.030994
  16 H :    0.027268
  17 H :    0.020323
  18 H :    0.030976
  19 H :    0.021940
  20 H :    0.066888

-------------------------------
LOEWDIN REDUCED ORBITAL CHARGES
-------------------------------
  0 C s       :     2.806992  s :     2.806992
      pz      :     0.978061  p :     3.041935
      px      :     1.035615
      py      :     1.028258
      dz2     :     0.012996  d :     0.198995
      dxz     :     0.021787
      dyz     :     0.019143
      dx2y2   :     0.061714
      dxy     :     0.083354
  1 C s       :     2.810131  s :     2.810131
      pz      :     0.934426  p :     3.005374
      px      :     1.018976
      py      :     1.051972
      dz2     :     0.013074  d :     0.203328
      dxz     :     0.009558
      dyz     :     0.037074
      dx2y2   :     0.079082
      dxy     :     0.064540
  2 C s       :     2.804826  s :     2.804826
      pz      :     0.997909  p :     3.054302
      px      :     1.033315
      py      :     1.023079
      dz2     :     0.013302  d :     0.197654
      dxz     :     0.031397
      dyz     :     0.010563
      dx2y2   :     0.078880
      dxy     :     0.063513
  3 C s       :     2.784286  s :     2.784286
      pz      :     0.943856  p :     2.922949
      px      :     0.986021
      py      :     0.993072
      dz2     :     0.020245  d :     0.314432
      dxz     :     0.056599
      dyz     :     0.042019
      dx2y2   :     0.086294
      dxy     :     0.109275
  4 C s       :     2.783209  s :     2.783209
      pz      :     0.988936  p :     3.016369
      px      :     1.001468
      py      :     1.025965
      dz2     :     0.016488  d :     0.249129
      dxz     :     0.032128
      dyz     :     0.028997
      dx2y2   :     0.094360
      dxy     :     0.077156
  5 C s       :     2.807242  s :     2.807242
      pz      :     0.933154  p :     3.000916
      px      :     1.049523
      py      :     1.018239
      dz2     :     0.012967  d :     0.204414
      dxz     :     0.035824
      dyz     :     0.011016
      dx2y2   :     0.074336
      dxy     :     0.070271
  6 C s       :     2.785151  s :     2.785151
      pz      :     0.947676  p :     2.988017
      px      :     1.009783
      py      :     1.030557
      dz2     :     0.016549  d :     0.254907
      dxz     :     0.037514
      dyz     :     0.028969
      dx2y2   :     0.096566
      dxy     :     0.075307
  7 C s       :     2.789397  s :     2.789397
      pz      :     0.963269  p :     2.949394
      px      :     0.987369
      py      :     0.998756
      dz2     :     0.020992  d :     0.310503
      dxz     :     0.055101
      dyz     :     0.039847
      dx2y2   :     0.089650
      dxy     :     0.104913
  8 C s       :     2.817090  s :     2.817090
      pz      :     0.962732  p :     2.987478
      px      :     1.021016
      py      :     1.003729
      dz2     :     0.016315  d :     0.270697
      dxz     :     0.039583
      dyz     :     0.014238
      dx2y2   :     0.122269
      dxy     :     0.078292
  9 C s       :     2.813545  s :     2.813545
      pz      :     0.954646  p :     3.026547
      px      :     1.053457
      py      :     1.018443
      dz2     :     0.013592  d :     0.199907
      dxz     :     0.033103
      dyz     :     0.010183
      dx2y2   :     0.077927
      dxy     :     0.065102
 10 C s       :     2.818680  s :     2.818680
      pz      :     0.953116  p :     2.981345
      px      :     1.042742
      py      :     0.985487
      dz2     :     0.016139  d :     0.266851
      dxz     :     0.021644
      dyz     :     0.030223
      dx2y2   :     0.076001
      dxy     :     0.122844
 11 N s       :     3.147068  s :     3.147068
      pz      :     1.064975  p :     3.717580
      px      :     1.502463
      py      :     1.150142
      dz2     :     0.009458  d :     0.096292
      dxz     :     0.007481
      dyz     :     0.017970
      dx2y2   :     0.026371
      dxy     :     0.035012
 12 N s       :     2.959208  s :     2.959208
      pz      :     1.519442  p :     3.776704
      px      :     1.137922
      py      :     1.119340
      dz2     :     0.005624  d :     0.094564
      dxz     :     0.016106
      dyz     :     0.004786
      dx2y2   :     0.035935
      dxy     :     0.032112
 13 H s       :     0.890121  s :     0.890121
      pz      :     0.017146  p :     0.079375
      px      :     0.017602
      py      :     0.044628
 14 H s       :     0.891743  s :     0.891743
      pz      :     0.018639  p :     0.079742
      px      :     0.029605
      py      :     0.031498
 15 H s       :     0.890251  s :     0.890251
      pz      :     0.017165  p :     0.078756
      px      :     0.045549
      py      :     0.016041
 16 H s       :     0.892004  s :     0.892004
      pz      :     0.019190  p :     0.080728
      px      :     0.017946
      py      :     0.043592
 17 H s       :     0.901961  s :     0.901961
      pz      :     0.017515  p :     0.077717
      px      :     0.015671
      py      :     0.044531
 18 H s       :     0.888434  s :     0.888434
      pz      :     0.017781  p :     0.080590
      px      :     0.016522
      py      :     0.046287
 19 H s       :     0.900847  s :     0.900847
      pz      :     0.017331  p :     0.077213
      px      :     0.034028
      py      :     0.025854
 20 H s       :     0.791162  s :     0.791162
      pz      :     0.045431  p :     0.141950
      px      :     0.021036
      py      :     0.075483


                      *****************************
                      * MAYER POPULATION ANALYSIS *
                      *****************************

  NA   - Mulliken gross atomic population
  ZA   - Total nuclear charge
  QA   - Mulliken gross atomic charge
  VA   - Mayer's total valence
  BVA  - Mayer's bonded valence
  FA   - Mayer's free valence

  ATOM       NA         ZA         QA         VA         BVA        FA
  0 C      5.9671     6.0000     0.0329     3.9869     3.9869     0.0000
  1 C      5.9590     6.0000     0.0410     4.0246     4.0246     0.0000
  2 C      5.9948     6.0000     0.0052     3.9497     3.9497    -0.0000
  3 C      5.9200     6.0000     0.0800     4.0120     4.0120    -0.0000
  4 C      5.9569     6.0000     0.0431     4.0211     4.0211    -0.0000
  5 C      6.0265     6.0000    -0.0265     3.9701     3.9701     0.0000
  6 C      5.8917     6.0000     0.1083     3.9951     3.9951    -0.0000
  7 C      5.9844     6.0000     0.0156     3.9670     3.9670    -0.0000
  8 C      5.9142     6.0000     0.0858     4.0202     4.0202    -0.0000
  9 C      6.0839     6.0000    -0.0839     3.9544     3.9544    -0.0000
 10 C      5.9113     6.0000     0.0887     4.0577     4.0577    -0.0000
 11 N      7.1523     7.0000    -0.1523     3.2819     3.2819     0.0000
 12 N      7.1557     7.0000    -0.1557     3.4347     3.4347    -0.0000
 13 H      1.0362     1.0000    -0.0362     0.9786     0.9786     0.0000
 14 H      1.0256     1.0000    -0.0256     0.9715     0.9715    -0.0000
 15 H      1.0229     1.0000    -0.0229     0.9715     0.9715    -0.0000
 16 H      1.0319     1.0000    -0.0319     0.9788     0.9788    -0.0000
 17 H      1.0140     1.0000    -0.0140     0.9864     0.9864    -0.0000
 18 H      1.0308     1.0000    -0.0308     0.9852     0.9852    -0.0000
 19 H      1.0071     1.0000    -0.0071     0.9829     0.9829    -0.0000
 20 H      0.9139     1.0000     0.0861     1.0172     1.0172    -0.0000

  Mayer bond orders larger than 0.100000
B(  0-C ,  1-C ) :   1.4035 B(  0-C ,  5-C ) :   1.4927 B(  0-C , 14-H ) :   0.9389 
B(  1-C ,  2-C ) :   1.5102 B(  1-C , 15-H ) :   0.9399 B(  2-C ,  3-C ) :   1.3801 
B(  2-C , 16-H ) :   0.9225 B(  3-C ,  4-C ) :   1.2745 B(  3-C , 12-N ) :   1.1682 
B(  4-C ,  5-C ) :   1.4187 B(  4-C ,  6-C ) :   1.1635 B(  5-C , 13-H ) :   0.9397 
B(  6-C ,  7-C ) :   1.2616 B(  6-C ,  9-C ) :   1.4191 B(  7-C ,  8-C ) :   1.3562 
B(  7-C , 12-N ) :   1.1511 B(  8-C , 11-N ) :   1.6095 B(  8-C , 17-H ) :   0.9381 
B(  9-C , 10-C ) :   1.4708 B(  9-C , 18-H ) :   0.9351 B( 10-C , 11-N ) :   1.5015 
B( 10-C , 19-H ) :   0.9529 B( 12-N , 20-H ) :   0.9489 

-------
TIMINGS
-------

Total SCF time: 0 days 0 hours 0 min 19 sec 

Total time                  ....      19.596 sec
Sum of individual times     ....      18.865 sec  ( 96.3%)

Fock matrix formation       ....      17.260 sec  ( 88.1%)
  Split-RI-J                ....       1.131 sec  (  6.6% of F)
  Chain of spheres X        ....      14.557 sec  ( 84.3% of F)
  XC integration            ....       1.516 sec  (  8.8% of F)
    Basis function eval.    ....       0.431 sec  ( 28.5% of XC)
    Density eval.           ....       0.456 sec  ( 30.1% of XC)
    XC-Functional eval.     ....       0.202 sec  ( 13.4% of XC)
    XC-Potential eval.      ....       0.284 sec  ( 18.7% of XC)
Diagonalization             ....       0.135 sec  (  0.7%)
Density matrix formation    ....       0.006 sec  (  0.0%)
Population analysis         ....       0.019 sec  (  0.1%)
Initial guess               ....       0.135 sec  (  0.7%)
Orbital Transformation      ....       0.000 sec  (  0.0%)
Orbital Orthonormalization  ....       0.000 sec  (  0.0%)
DIIS solution               ....       0.070 sec  (  0.4%)
SOSCF solution              ....       0.107 sec  (  0.5%)
Grid generation             ....       1.133 sec  (  5.8%)

Maximum memory used throughout the entire SCF-calculation: 67.0 MB


           ************************************************************
           *        Program running with 16 parallel MPI-processes    *
           *              working on a common directory               *
           ************************************************************
------------------------------------------------------------------------------
                        ORCA TD-DFT/TDA CALCULATION
------------------------------------------------------------------------------

Input orbitals are from        ... beta-carboline_opt_iroot_1.gbw
CI-vector output               ... beta-carboline_opt_iroot_1.cis
Tamm-Dancoff approximation     ... operative
CIS-Integral strategy          ... AO-integrals
Integral handling              ... AO integral Direct
Max. core memory used          ... 512 MB
Reference state                ... RHF
Generation of triplets         ... off
Follow IRoot                   ... off
Number of operators            ... 1
Orbital ranges used for CIS calculation:
 Operator 0:  Orbitals  13... 43  to  44...221
XAS localization array:
 Operator 0:  Orbitals  -1... -1

-------------------
XC-INTEGRATION GRID
-------------------

General Integration Accuracy     IntAcc      ... 3.467
Radial Grid Type                 RadialGrid  ... OptM3 with GC (2021)
Angular Grid (max. ang.)         AngularGrid ... 1 (Lebedev-50)
Angular grid pruning method      GridPruning ... 4 (adaptive)
Weight generation scheme         WeightScheme... Becke
Basis function cutoff            BFCut       ... 1.0000e-11
Integration weight cutoff        WCut        ... 1.0000e-14
Angular grids for H and He will be reduced by one unit
Partially contracted basis set               ... off
Rotationally invariant grid construction     ... off

Total number of grid points                  ...    15410
Total number of batches                      ...      252
Average number of points per batch           ...       61
Average number of grid points per atom       ...      734

---------------------
COSX-INTEGRATION GRID
---------------------

General Integration Accuracy     IntAcc      ... 3.067
Radial Grid Type                 RadialGrid  ... OptM3 with GC (2021)
Angular Grid (max. ang.)         AngularGrid ... 1 (Lebedev-50)
Angular grid pruning method      GridPruning ... 4 (adaptive)
Weight generation scheme         WeightScheme... Becke
Basis function cutoff            BFCut       ... 1.0000e-11
Integration weight cutoff        WCut        ... 1.0000e-14
Angular grids for H and He will be reduced by one unit
Partially contracted basis set               ... on
Rotationally invariant grid construction     ... off

Total number of grid points                  ...     7017
Total number of batches                      ...      123
Average number of points per batch           ...       57
Average number of grid points per atom       ...      334

---------------
TD-DFT XC SETUP
---------------

DFT calculation                         ... on
Name of the grid file                   ... beta-carboline_opt_iroot_1.grid_cis.tmp
Exchange functional (TD-DFT)            ... WB88
Correlation functional (TD-DFT)         ... LYP
 LDA part of GGA corr.  LDAOpt (TD-DFT) ... VWN-5
Hybrid DFT                              ... on
   Exchange mixing (TD-DFT)             ...  0.190
   GGA exch. scaling (TD-DFT)           ...  0.350
   GGA corr. scaling (TD-DFT)           ...  0.810
Range-Separated Exchange                ... on
   Range Range separation parameter mu  .... 0.330
   Max. amount of RS exchange (TD-DFT)  ...  0.460

[...]
Average number of points per batch           ...       61
Average number of grid points per atom       ...      734

---------------------
COSX-INTEGRATION GRID
---------------------

General Integration Accuracy     IntAcc      ... 3.067
Radial Grid Type                 RadialGrid  ... OptM3 with GC (2021)
Angular Grid (max. ang.)         AngularGrid ... 1 (Lebedev-50)
Angular grid pruning method      GridPruning ... 4 (adaptive)
Weight generation scheme         WeightScheme... Becke
Basis function cutoff            BFCut       ... 1.0000e-11
Integration weight cutoff        WCut        ... 1.0000e-14
Angular grids for H and He will be reduced by one unit
Partially contracted basis set               ... on
Rotationally invariant grid construction     ... off

Total number of grid points                  ...     7022
Total number of batches                      ...      123
Average number of points per batch           ...       57
Average number of grid points per atom       ...      334

---------------
TD-DFT XC SETUP
---------------

DFT calculation                         ... on
Name of the grid file                   ... beta-carboline_opt_iroot_1.grid_cis.tmp
Exchange functional (TD-DFT)            ... WB88
Correlation functional (TD-DFT)         ... LYP
 LDA part of GGA corr.  LDAOpt (TD-DFT) ... VWN-5
Hybrid DFT                              ... on
   Exchange mixing (TD-DFT)             ...  0.190
   GGA exch. scaling (TD-DFT)           ...  0.350
   GGA corr. scaling (TD-DFT)           ...  0.810
Range-Separated Exchange                ... on
   Range Range separation parameter mu  .... 0.330
   Max. amount of RS exchange (TD-DFT)  ...  0.460

Building densities             ... done
Calculating rho(r) on the grid ... done
Building xc-kernel on the grid ... done
                    *** TD-DFT CALCULATION INITIALIZED ***

------------------------
DAVIDSON-DIAGONALIZATION
------------------------

Dimension of the eigenvalue problem            ...   5518
Number of roots to be determined               ...     10
Maximum size of the expansion space            ...    100
Maximum number of iterations                   ...    100
Convergence tolerance for the residual         ...    2.500e-07
Convergence tolerance for the energies         ...    2.500e-07
Orthogonality tolerance                        ...    1.000e-14
Level Shift                                    ...    0.000e+00
Constructing the preconditioner                ... o.k.
Building the initial guess                     ... o.k.
Number of trial vectors determined             ...    100


                       ****Iteration    0****

   Memory handling for direct AO based CIS:
   Memory per vector needed      ...     2 MB
   Memory needed                 ...    84 MB
   Memory available              ...   512 MB
   Number of vectors per batch   ...   181
   Number of batches             ...     1
   Time for densities:            0.025
   Time for RI-J (Direct):        0.557
   Time for K (COSX):             1.745
   Time for XC-Integration:       0.611
   Time for Sigma-Completion:     0.024
   Size of expansion space: 30
   Lowest Energy          :     0.166594251579
   Maximum Energy change  :     0.268287801815 (vector 9)
   Maximum residual norm  :     0.013575726859

                       ****Iteration    1****
   Time for densities:            0.008
   Time for RI-J (Direct):        0.160
   Time for K (COSX):             0.681
   Time for XC-Integration:       0.216
   Time for Sigma-Completion:     0.008
   Size of expansion space: 40
   Lowest Energy          :     0.156364238523
   Maximum Energy change  :     0.015034776888 (vector 8)
   Maximum residual norm  :     0.002967665416

                       ****Iteration    2****
   Time for densities:            0.009
   Time for RI-J (Direct):        0.152
   Time for K (COSX):             0.681
   Time for XC-Integration:       0.218
   Time for Sigma-Completion:     0.008
   Size of expansion space: 50
   Lowest Energy          :     0.155823486502
   Maximum Energy change  :     0.003768186380 (vector 9)
   Maximum residual norm  :     0.000236109855

                       ****Iteration    3****
   Time for densities:            0.009
   Time for RI-J (Direct):        0.163
   Time for K (COSX):             0.699
   Time for XC-Integration:       0.222
   Time for Sigma-Completion:     0.008
   Size of expansion space: 60
   Lowest Energy          :     0.155797671519
   Maximum Energy change  :     0.000610941347 (vector 9)
   Maximum residual norm  :     0.000023368541

                       ****Iteration    4****
   Time for densities:            0.009
   Time for RI-J (Direct):        0.156
   Time for K (COSX):             0.698
   Time for XC-Integration:       0.220
   Time for Sigma-Completion:     0.008
   Size of expansion space: 70
   Lowest Energy          :     0.155796634661
   Maximum Energy change  :     0.000031660784 (vector 9)
   Maximum residual norm  :     0.000001734066

                       ****Iteration    5****
   Time for densities:            0.009
   Time for RI-J (Direct):        0.156
   Time for K (COSX):             0.698
   Time for XC-Integration:       0.227
   Time for Sigma-Completion:     0.011
   Size of expansion space: 80
   Lowest Energy          :     0.155796603128
   Maximum Energy change  :     0.000002853013 (vector 9)
   Maximum residual norm  :     0.000000155485

      *** CONVERGENCE OF RESIDUAL NORM REACHED ***

Storing the converged CI vectors               ... beta-carboline_opt_iroot_1.cis1

                 *** DAVIDSON DONE ***

Total time for solving the CIS problem:     8.541sec

------------------------------------
TD-DFT/TDA EXCITED STATES (SINGLETS)
------------------------------------

the weight of the individual excitations are printed if larger than 1.0e-02

STATE  1:  E=   0.155797 au      4.239 eV    34193.4 cm**-1 <S**2> =   0.000000
    39a ->  46a  :     0.015287 (c= -0.12364163)
    42a ->  45a  :     0.093284 (c=  0.30542478)
    43a ->  44a  :     0.863521 (c=  0.92925835)

STATE  2:  E=   0.181101 au      4.928 eV    39747.0 cm**-1 <S**2> =   0.000000
    41a ->  44a  :     0.041928 (c=  0.20476251)
    41a ->  46a  :     0.010689 (c=  0.10338815)
    42a ->  44a  :     0.668710 (c= -0.81774709)
    43a ->  45a  :     0.217542 (c=  0.46641402)
    43a ->  47a  :     0.025198 (c=  0.15874021)

STATE  3:  E=   0.184556 au      5.022 eV    40505.5 cm**-1 <S**2> =   0.000000
    40a ->  44a  :     0.845506 (c=  0.91951416)
    40a ->  45a  :     0.024353 (c= -0.15605317)
    40a ->  47a  :     0.111125 (c=  0.33335455)

STATE  4:  E=   0.205152 au      5.582 eV    45025.6 cm**-1 <S**2> =   0.000000
    39a ->  45a  :     0.060908 (c= -0.24679519)
    41a ->  44a  :     0.443944 (c=  0.66629123)
    42a ->  46a  :     0.171115 (c=  0.41366040)
    43a ->  45a  :     0.193829 (c= -0.44026017)
    43a ->  47a  :     0.088812 (c=  0.29801369)

STATE  5:  E=   0.223076 au      6.070 eV    48959.5 cm**-1 <S**2> =   0.000000
    41a ->  44a  :     0.246742 (c=  0.49673110)
    42a ->  44a  :     0.214128 (c=  0.46273997)
    42a ->  45a  :     0.017356 (c=  0.13174400)
    43a ->  45a  :     0.428201 (c=  0.65437084)
    43a ->  46a  :     0.012583 (c=  0.11217549)
    43a ->  47a  :     0.030891 (c= -0.17575817)

STATE  6:  E=   0.224488 au      6.109 eV    49269.4 cm**-1 <S**2> =   0.000000
    40a ->  45a  :     0.588138 (c= -0.76690183)
    40a ->  46a  :     0.395799 (c= -0.62912582)

STATE  7:  E=   0.227118 au      6.180 eV    49846.5 cm**-1 <S**2> =   0.000000
    38a ->  44a  :     0.032953 (c= -0.18152987)
    41a ->  47a  :     0.036574 (c= -0.19124395)
    42a ->  44a  :     0.013959 (c=  0.11814949)
    42a ->  45a  :     0.474022 (c= -0.68849285)
    42a ->  47a  :     0.047446 (c=  0.21782153)
    43a ->  44a  :     0.053110 (c=  0.23045524)
    43a ->  45a  :     0.039434 (c=  0.19858052)
    43a ->  46a  :     0.262125 (c= -0.51198190)
    43a ->  47a  :     0.013154 (c=  0.11469029)

STATE  8:  E=   0.243627 au      6.629 eV    53470.0 cm**-1 <S**2> =   0.000000
    39a ->  44a  :     0.096850 (c= -0.31120690)
    41a ->  44a  :     0.089622 (c=  0.29936852)
    41a ->  45a  :     0.010720 (c= -0.10353511)
    42a ->  44a  :     0.030650 (c= -0.17507157)
    42a ->  45a  :     0.066423 (c=  0.25772665)
    42a ->  47a  :     0.013437 (c=  0.11591991)
    43a ->  45a  :     0.031217 (c= -0.17668412)
    43a ->  46a  :     0.342506 (c= -0.58523970)
    43a ->  47a  :     0.261319 (c= -0.51119412)

STATE  9:  E=   0.244814 au      6.662 eV    53730.4 cm**-1 <S**2> =   0.000000
    38a ->  48a  :     0.025351 (c=  0.15922063)
    43a ->  48a  :     0.942983 (c= -0.97107318)

STATE 10:  E=   0.249662 au      6.794 eV    54794.4 cm**-1 <S**2> =   0.000000
    39a ->  44a  :     0.187917 (c= -0.43349381)
    41a ->  44a  :     0.036216 (c= -0.19030608)
    41a ->  45a  :     0.049788 (c= -0.22313174)
    42a ->  44a  :     0.025978 (c=  0.16117595)
    42a ->  45a  :     0.114503 (c=  0.33838255)
    42a ->  46a  :     0.022317 (c=  0.14938785)
    43a ->  45a  :     0.027734 (c=  0.16653477)
    43a ->  46a  :     0.079507 (c= -0.28197006)
    43a ->  47a  :     0.379016 (c=  0.61564272)


-----------------------------
TD-DFT/TDA-EXCITATION SPECTRA
-----------------------------

Center of mass = (  5.1372,  3.9339, -0.1874)
Calculating the Dipole integrals                  ... done
Transforming integrals                            ... done
Calculating the Linear Momentum integrals         ... done
Transforming integrals                            ... done
Calculating angular momentum integrals            ... done
Transforming integrals                            ... done

-----------------------------------------------------------------------------
         ABSORPTION SPECTRUM VIA TRANSITION ELECTRIC DIPOLE MOMENTS
-----------------------------------------------------------------------------
State   Energy    Wavelength  fosc         T2        TX        TY        TZ  
        (cm-1)      (nm)                 (au**2)    (au)      (au)      (au) 
-----------------------------------------------------------------------------
   1   34193.4    292.5   0.080707410   0.77705  -0.25531  -0.84221   0.05042
   2   39747.0    251.6   0.133612434   1.10667   1.04156  -0.14709   0.01351
   3   40505.5    246.9   0.003883269   0.03156  -0.00098  -0.01084  -0.17732
   4   45025.6    222.1   0.070196154   0.51325   0.67925  -0.22709   0.01720
   5   48959.5    204.3   1.062699528   7.14577  -2.65766   0.28600  -0.02865
   6   49269.4    203.0   0.000929231   0.00621   0.02532   0.00276   0.07457
   7   49846.5    200.6   0.205928337   1.36006  -1.01154  -0.57957   0.03066
   8   53470.0    187.0   0.421700259   2.59638   1.58969   0.26304  -0.00969
   9   53730.4    186.1   0.000098162   0.00060  -0.02340   0.00115   0.00726
  10   54794.4    182.5   0.325074791   1.95309  -1.29637   0.52064  -0.03828

-----------------------------------------------------------------------------
         ABSORPTION SPECTRUM VIA TRANSITION VELOCITY DIPOLE MOMENTS
-----------------------------------------------------------------------------
State   Energy    Wavelength   fosc        P2         PX        PY        PZ  
        (cm-1)      (nm)                 (au**2)     (au)      (au)      (au) 
-----------------------------------------------------------------------------
   1   34193.4    292.5   0.039316208   0.00919   0.00204  -0.09565   0.00585
   2   39747.0    251.6   0.005210282   0.00142  -0.03524  -0.01315   0.00061
   3   40505.5    246.9   0.000236155   0.00007   0.00009  -0.00049  -0.00807
   4   45025.6    222.1   0.008391098   0.00258  -0.04938  -0.01199   0.00056
   5   48959.5    204.3   0.157706031   0.05277   0.22951   0.00987   0.00043
   6   49269.4    203.0   0.000017745   0.00001  -0.00224   0.00002   0.00098
   7   49846.5    200.6   0.025829074   0.00880   0.08626  -0.03678   0.00259
   8   53470.0    187.0   0.072087460   0.02634  -0.15867   0.03401  -0.00352
   9   53730.4    186.1   0.007923834   0.00291   0.00257  -0.00359  -0.05376
  10   54794.4    182.5   0.045198270   0.01693   0.12399   0.03938  -0.00172

-------------------------------------------------------------------
                             CD SPECTRUM
-------------------------------------------------------------------
State  Energy     Wavelength     R         MX        MY        MZ   
       (cm-1)       (nm)     (1e40*cgs)   (au)      (au)      (au)  
-------------------------------------------------------------------
   1   34193.4    292.5      0.08690  -0.00113   0.00712   0.11679
   2   39747.0    251.6      0.03915   0.00082  -0.00876  -0.15279
   3   40505.5    246.9     -0.06539   0.07512   0.29838  -0.01788
   4   45025.6    222.1      0.05215  -0.00006   0.00359   0.05638
   5   48959.5    204.3     -0.26090   0.00083  -0.01666  -0.22378
   6   49269.4    203.0     -0.06078  -0.03144  -0.25027   0.01820
   7   49846.5    200.6      0.61911  -0.00039  -0.00770  -0.11564
   8   53470.0    187.0     -1.75173  -0.00288   0.00793   0.12657
   9   53730.4    186.1      1.96920  -0.17952  -0.00699  -0.00214
  10   54794.4    182.5     -0.62254   0.00153  -0.00739  -0.11772

-------------------------------------------------------------------
         CD SPECTRUM VIA TRANSITION VELOCITY DIPOLE MOMENTS        
-------------------------------------------------------------------
State  Energy     Wavelength     R         MX        MY        MZ   
       (cm-1)       (nm)     (1e40*cgs)   (au)      (au)      (au)  
-------------------------------------------------------------------
   1   34193.4    292.5      0.00141  -0.00113   0.00712   0.11679
   2   39747.0    251.6     -0.01878   0.00082  -0.00876  -0.15279
   3   40505.5    246.9      0.01551   0.07512   0.29838  -0.01788
   4   45025.6    222.1     -0.01987  -0.00006   0.00359   0.05638
   5   48959.5    204.3     -0.14825   0.00083  -0.01666  -0.22378
   6   49269.4    203.0      0.17279  -0.03144  -0.25027   0.01820
   7   49846.5    200.6     -0.10449  -0.00039  -0.00770  -0.11564
   8   53470.0    187.0      0.54317  -0.00288   0.00793   0.12657
   9   53730.4    186.1     -0.61720  -0.17952  -0.00699  -0.00214
  10   54794.4    182.5      0.18994   0.00153  -0.00739  -0.11772

Total run time:        9.178 sec

           *** ORCA-CIS/TD-DFT FINISHED WITHOUT ERROR ***

Maximum memory used throughout the entire CIS-calculation: 107.2 MB

-----------------------
CIS/TD-DFT TOTAL ENERGY
-----------------------

    E(SCF)  =   -533.241874162 Eh
    DE(CIS) =      0.155796603 Eh (Root  1)
    ----------------------------- ---------
    E(tot)  =   -533.086077559 Eh


-------------------------   --------------------
FINAL SINGLE POINT ENERGY      -533.086077559280
-------------------------   --------------------

                                *** OPTIMIZATION RUN DONE ***

                            ***************************************
                            *     ORCA property calculations      *
                            ***************************************

                                    ---------------------
                                    Active property flags
                                    ---------------------
   (+) Dipole Moment


------------------------------------------------------------------------------
                       ORCA ELECTRIC PROPERTIES CALCULATION
------------------------------------------------------------------------------

Dipole Moment Calculation                       ... on
Quadrupole Moment Calculation                   ... off
Polarizability Calculation                      ... off
GBWName                                         ... beta-carboline_opt_iroot_1.gbw
Electron density                                ... beta-carboline_opt_iroot_1.scfp
The origin for moment calculation is the CENTER OF MASS  = ( 5.137214,  3.933910 -0.187421)

-------------
DIPOLE MOMENT
-------------
                                X             Y             Z
Electronic contribution:      3.12556      -1.69937       0.12971
Nuclear contribution   :     -4.16049       1.25588      -0.10754
                        -----------------------------------------
Total Dipole Moment    :     -1.03494      -0.44349       0.02217
                        -----------------------------------------
Magnitude (a.u.)       :      1.12617
Magnitude (Debye)      :      2.86251



--------------------
Rotational spectrum 
--------------------
 
Rotational constants in cm-1:     0.077682     0.019409     0.015529 
Rotational constants in MHz :  2328.847981   581.867952   465.549842 

 Dipole components along the rotational axes: 
x,y,z [a.u.] :    -1.021648    -0.473816    -0.000736 
x,y,z [Debye]:    -2.596824    -1.204344    -0.001872 

 

                        *** CIS RELAXED DENSITY ***

------------------------------------------------------------------------------
                       ORCA ELECTRIC PROPERTIES CALCULATION
------------------------------------------------------------------------------

Dipole Moment Calculation                       ... on
Quadrupole Moment Calculation                   ... off
Polarizability Calculation                      ... off
GBWName                                         ... beta-carboline_opt_iroot_1.gbw
Electron density                                ... beta-carboline_opt_iroot_1.cisp
The origin for moment calculation is the CENTER OF MASS  = ( 5.137214,  3.933910 -0.187421)

-------------
DIPOLE MOMENT
-------------
                                X             Y             Z
Electronic contribution:      2.97357      -1.91239       0.14245
Nuclear contribution   :     -4.16049       1.25588      -0.10754
                        -----------------------------------------
Total Dipole Moment    :     -1.18692      -0.65651       0.03491
                        -----------------------------------------
Magnitude (a.u.)       :      1.35684
Magnitude (Debye)      :      3.44881



--------------------
Rotational spectrum 
--------------------
 
Rotational constants in cm-1:     0.077682     0.019409     0.015529 
Rotational constants in MHz :  2328.847981   581.867952   465.549842 

 Dipole components along the rotational axes: 
x,y,z [a.u.] :    -1.167389    -0.691530    -0.000511 
x,y,z [Debye]:    -2.967266    -1.757729    -0.001299 

 

Timings for individual modules:

Sum of individual times         ...      344.187 sec (=   5.736 min)
GTO integral calculation        ...        8.729 sec (=   0.145 min)   2.5 %
SCF iterations                  ...      115.496 sec (=   1.925 min)  33.6 %
CIS module                      ...       79.531 sec (=   1.326 min)  23.1 %
SCF Gradient evaluation         ...      139.537 sec (=   2.326 min)  40.5 %
Geometry relaxation             ...        0.894 sec (=   0.015 min)   0.3 %
                             ****ORCA TERMINATED NORMALLY****
TOTAL RUN TIME: 0 days 0 hours 5 minutes 49 seconds 962 msec
Filesystem                                  Size  Used Avail Use% Mounted on
devtmpfs                                    252G     0  252G   0% /dev
tmpfs                                       252G  220M  252G   1% /dev/shm
tmpfs                                       252G  4.1G  248G   2% /run
tmpfs                                       252G     0  252G   0% /sys/fs/cgroup
/dev/mapper/rl_cccuam-root                   46G   13G   31G  29% /
/dev/nvme0n1p1                              1.8G  259M  1.5G  15% /boot
/dev/nvme0n1p3                              500M  5.9M  494M   2% /boot/efi
/dev/mapper/rl_cccuam-tmp                   9.1G  116K  8.6G   1% /tmp
/dev/mapper/rl_cccuam-var                    19G  2.2G   16G  13% /var
/dev/mapper/rl_cccuam-temporal              1.7T  102G  1.5T   7% /temporal
192.168.5.2@o2ib:192.168.5.3@o2ib:/LUSTREB  923T  265T  613T  31% /lustre
