hamilton15.ccc.uam.es
/temporal/fmatar/slurm_tmp_6744861

                                 *****************
                                 * O   R   C   A *
                                 *****************

                                            #,                                       
                                            ###                                      
                                            ####                                     
                                            #####                                    
                                            ######                                   
                                           ########,                                 
                                     ,,################,,,,,                         
                               ,,#################################,,                 
                          ,,##########################################,,             
                       ,#########################################, ''#####,          
                    ,#############################################,,   '####,        
                  ,##################################################,,,,####,       
                ,###########''''           ''''###############################       
              ,#####''   ,,,,##########,,,,          '''####'''          '####       
            ,##' ,,,,###########################,,,                        '##       
           ' ,,###''''                  '''############,,,                           
         ,,##''                                '''############,,,,        ,,,,,,###''
      ,#''                                            '''#######################'''  
     '                                                          ''''####''''         
             ,#######,   #######,   ,#######,      ##                                
            ,#'     '#,  ##    ##  ,#'     '#,    #''#        ######   ,####,        
            ##       ##  ##   ,#'  ##            #'  '#       #        #'  '#        
            ##       ##  #######   ##           ,######,      #####,   #    #        
            '#,     ,#'  ##    ##  '#,     ,#' ,#      #,         ##   #,  ,#        
             '#######'   ##     ##  '#######'  #'      '#     #####' # '####'        



                  #######################################################
                  #                        -***-                        #
                  #          Department of theory and spectroscopy      #
                  #    Directorship and core code : Frank Neese         #
                  #        Max Planck Institute fuer Kohlenforschung    #
                  #                Kaiser Wilhelm Platz 1               #
                  #                 D-45470 Muelheim/Ruhr               #
                  #                      Germany                        #
                  #                                                     #
                  #                  All rights reserved                #
                  #                        -***-                        #
                  #######################################################


                         Program Version 5.0.3 -  RELEASE  -


 With contributions from (in alphabetic order):
   Daniel Aravena         : Magnetic Suceptibility
   Michael Atanasov       : Ab Initio Ligand Field Theory (pilot matlab implementation)
   Alexander A. Auer      : GIAO ZORA, VPT2 properties, NMR spectrum
   Ute Becker             : Parallelization
   Giovanni Bistoni       : ED, misc. LED, open-shell LED, HFLD
   Martin Brehm           : Molecular dynamics
   Dmytro Bykov           : SCF Hessian
   Vijay G. Chilkuri      : MRCI spin determinant printing, contributions to CSF-ICE
   Dipayan Datta          : RHF DLPNO-CCSD density
   Achintya Kumar Dutta   : EOM-CC, STEOM-CC
   Dmitry Ganyushin       : Spin-Orbit,Spin-Spin,Magnetic field MRCI
   Miquel Garcia          : C-PCM and meta-GGA Hessian, CC/C-PCM, Gaussian charge scheme
   Yang Guo               : DLPNO-NEVPT2, F12-NEVPT2, CIM, IAO-localization
   Andreas Hansen         : Spin unrestricted coupled pair/coupled cluster methods
   Benjamin Helmich-Paris : MC-RPA, TRAH-SCF, COSX integrals
   Lee Huntington         : MR-EOM, pCC
   Robert Izsak           : Overlap fitted RIJCOSX, COSX-SCS-MP3, EOM
   Marcus Kettner         : VPT2
   Christian Kollmar      : KDIIS, OOCD, Brueckner-CCSD(T), CCSD density, CASPT2, CASPT2-K
   Simone Kossmann        : Meta GGA functionals, TD-DFT gradient, OOMP2, MP2 Hessian
   Martin Krupicka        : Initial AUTO-CI
   Lucas Lang             : DCDCAS
   Marvin Lechner         : AUTO-CI (C++ implementation), FIC-MRCC
   Dagmar Lenk            : GEPOL surface, SMD
   Dimitrios Liakos       : Extrapolation schemes; Compound Job, initial MDCI parallelization
   Dimitrios Manganas     : Further ROCIS development; embedding schemes
   Dimitrios Pantazis     : SARC Basis sets
   Anastasios Papadopoulos: AUTO-CI, single reference methods and gradients
   Taras Petrenko         : DFT Hessian,TD-DFT gradient, ASA, ECA, R-Raman, ABS, FL, XAS/XES, NRVS
   Peter Pinski           : DLPNO-MP2, DLPNO-MP2 Gradient
   Christoph Reimann      : Effective Core Potentials
   Marius Retegan         : Local ZFS, SOC
   Christoph Riplinger    : Optimizer, TS searches, QM/MM, DLPNO-CCSD(T), (RO)-DLPNO pert. Triples
   Tobias Risthaus        : Range-separated hybrids, TD-DFT gradient, RPA, STAB
   Michael Roemelt        : Original ROCIS implementation
   Masaaki Saitow         : Open-shell DLPNO-CCSD energy and density
   Barbara Sandhoefer     : DKH picture change effects
   Avijit Sen             : IP-ROCIS
   Kantharuban Sivalingam : CASSCF convergence, NEVPT2, FIC-MRCI
   Bernardo de Souza      : ESD, SOC TD-DFT
   Georgi Stoychev        : AutoAux, RI-MP2 NMR, DLPNO-MP2 response
   Willem Van den Heuvel  : Paramagnetic NMR
   Boris Wezisla          : Elementary symmetry handling
   Frank Wennmohs         : Technical directorship


 We gratefully acknowledge several colleagues who have allowed us to
 interface, adapt or use parts of their codes:
   Stefan Grimme, W. Hujo, H. Kruse, P. Pracht,  : VdW corrections, initial TS optimization,
                  C. Bannwarth, S. Ehlert          DFT functionals, gCP, sTDA/sTD-DF
   Ed Valeev, F. Pavosevic, A. Kumar             : LibInt (2-el integral package), F12 methods
   Garnet Chan, S. Sharma, J. Yang, R. Olivares  : DMRG
   Ulf Ekstrom                                   : XCFun DFT Library
   Mihaly Kallay                                 : mrcc  (arbitrary order and MRCC methods)
   Jiri Pittner, Ondrej Demel                    : Mk-CCSD
   Frank Weinhold                                : gennbo (NPA and NBO analysis)
   Christopher J. Cramer and Donald G. Truhlar   : smd solvation model
   Lars Goerigk                                  : TD-DFT with DH, B97 family of functionals
   V. Asgeirsson, H. Jonsson                     : NEB implementation
   FAccTs GmbH                                   : IRC, NEB, NEB-TS, DLPNO-Multilevel, CI-OPT
                                                   MM, QMMM, 2- and 3-layer-ONIOM, Crystal-QMMM,
                                                   LR-CPCM, SF, NACMEs, symmetry and pop. for TD-DFT,
                                                   nearIR, NL-DFT gradient (VV10), updates on ESD,
                                                   ML-optimized integration grids
   S Lehtola, MJT Oliveira, MAL Marques          : LibXC Library
   Liviu Ungur et al                             : ANISO software


 Your calculation uses the libint2 library for the computation of 2-el integrals
 For citations please refer to: http://libint.valeyev.net

 Your ORCA version has been built with support for libXC version: 5.1.0
 For citations please refer to: https://tddft.org/programs/libxc/

 This ORCA versions uses:
   CBLAS   interface :  Fast vector & matrix operations
   LAPACKE interface :  Fast linear algebra routines
   SCALAPACK package :  Parallel linear algebra routines
   Shared memory     :  Shared parallel matrices
   BLAS/LAPACK       :  OpenBLAS 0.3.15  USE64BITINT DYNAMIC_ARCH NO_AFFINITY Prescott SINGLE_THREADED
        Core in use  :  Prescott
   Copyright (c) 2011-2014, The OpenBLAS Project


XCFun DFT library Copyright 2009-2010 Ulf Ekstrom and contributors.
See http://admol.org/xcfun for more information.
This is free software; see the source code for copying conditions.
There is ABSOLUTELY NO WARRANTY; not even for MERCHANTABILITY or FITNESS FOR A PARTICULAR PURPOSE.
For details see the documentation.
Scientific users of this library should cite U. Ekstrom, L. Visscher, R. Bast, A. J. Thorvaldsen and K. Ruud;
J.Chem.Theor.Comp. 2010, DOI: 10.1021/ct100117s
XCFun Version 0.99 

================================================================================

----- Orbital basis set information -----
Your calculation utilizes the basis: cc-pVDZ 
       H, B-Ne : Obtained from the ccRepo (grant-hill.group.shef.ac.uk/ccrepo) Feb. 2017
                 T. H. Dunning, Jr., J. Chem. Phys. 90, 1007 (1989)
            He : Obtained from the ccRepo (grant-hill.group.shef.ac.uk/ccrepo) Feb. 2017
                 D. E. Woon, T. H. Dunning, Jr., J. Chem. Phys. 100, 2975 (1994)
  Li-Be, Na-Mg : Obtained from the ccRepo (grant-hill.group.shef.ac.uk/ccrepo) Feb. 2017
                 B. P. Prascher, D. E. Woon, K. A. Peterson, T. H. Dunning, Jr., A. K. Wilson, Theor. Chem. Acc. 128, 69 (2011)
         Al-Ar : Obtained from the ccRepo (grant-hill.group.shef.ac.uk/ccrepo) Feb. 2017
                 D. E. Woon, T. H. Dunning, Jr., J. Chem. Phys. 98, 1358 (1993)
            Ca : Obtained from the Peterson Research Group Website (tyr0.chem.wsu.edu/~kipeters) Feb. 2017
                 J. Koput, K. A. Peterson, J. Phys. Chem. 106, 9595 (2002)
         Sc-Zn : Obtained from the ccRepo (grant-hill.group.shef.ac.uk/ccrepo) Feb. 2017
                 N. B. Balabanov, K. A. Peterson, J. Chem. Phys. 123, 064107 (2005)
                 N. B. Balabanov, K. A. Peterson, J. Chem. Phys. 125, 074110 (2006)
         Ga-Kr : Obtained from the ccRepo (grant-hill.group.shef.ac.uk/ccrepo) Feb. 2017
                 A. K. Wilson, D. E. Woon, K. A. Peterson, T. H. Dunning, Jr., J. Chem. Phys. 110, 7667 (1999)

----- AuxJ basis set information -----
Your calculation utilizes the auxiliary basis: def2/J
   F. Weigend, Phys. Chem. Chem. Phys. 8, 1057 (2006).

================================================================================
                                        WARNINGS
                       Please study these warnings very carefully!
================================================================================

INFO   : Checking CIS options ...

WARNING: Analytical Frequencies for this method not available!
  ===> : Switching to Numerical Frequencies!

WARNING: The environment variable RSH_COMMAND is not set!
  ===> : All Displacements for the Numerical Hessian or Gradient calculation
         will be started on localhost

WARNING: Geometry Optimization
  ===> : Switching off AutoStart
         For restart on a previous wavefunction, please use MOREAD

WARNING: CIS/ROCIS methods need fully converged wavefunctions
  ===> : Setting SCFConvForced true
         You can overwrite this default with %scf ConvForced false 


INFO   : the flag for use of the SHARK integral package has been found!

================================================================================
                                       INPUT FILE
================================================================================
NAME = xanthine_opt_followiroot_9.in
|  1> ! cam-b3lyp cc-pvdz opt freq 
|  2> 
|  3> %geom
|  4>  maxIter 100
|  5> end
|  6> %tddft
|  7>  nroots 10
|  8>  tda TRUE
|  9>  IRoot 9
| 10>  followiroot true
| 11> end
| 12> 
| 13> *xyz 0 1 
| 14> N     -3.496257   -0.543515   -0.115550
| 15> C     -2.279446    0.150725   -0.177131
| 16> C     -1.180304   -0.776847   -0.108955
| 17> C     -1.345534   -2.136000    0.001328
| 18> N     -2.598112   -2.697340    0.052940
| 19> C     -3.736575   -1.915106   -0.003319
| 20> N     -0.158497   -2.789925    0.048101
| 21> C      0.740501   -1.820611   -0.034492
| 22> N      0.185285   -0.591620   -0.130674
| 23> H     -4.337129    0.024694   -0.155017
| 24> H     -2.728481   -3.698033    0.134799
| 25> H      0.658302    0.299500   -0.204736
| 26> O     -2.226093    1.360434   -0.273392
| 27> O     -4.856728   -2.372456    0.040592
| 28> H      1.816893   -1.974607   -0.027660
| 29> *
| 30> ! EXTREMESCF
| 31> !defgrid3
| 32> %pal
| 33>   nprocs 16
| 34>   end
| 35> 
| 36>                          ****END OF INPUT****
================================================================================

                       *****************************
                       * Geometry Optimization Run *
                       *****************************

Geometry optimization settings:
Update method            Update   .... BFGS
Choice of coordinates    CoordSys .... Z-matrix Internals
Initial Hessian          InHess   .... Almoef's Model

Convergence Tolerances:
Energy Change            TolE     ....  5.0000e-06 Eh
Max. Gradient            TolMAXG  ....  3.0000e-04 Eh/bohr
RMS Gradient             TolRMSG  ....  1.0000e-04 Eh/bohr
Max. Displacement        TolMAXD  ....  4.0000e-03 bohr
RMS Displacement         TolRMSD  ....  2.0000e-03 bohr
Strict Convergence                ....  False
------------------------------------------------------------------------------
                        ORCA OPTIMIZATION COORDINATE SETUP
------------------------------------------------------------------------------

The optimization will be done in new redundant internal coordinates
Making redundant internal coordinates   ...  (new redundants) done
Evaluating the initial hessian          ...  (Almloef) done
Evaluating the coordinates              ...  done
Calculating the B-matrix                .... done
Calculating the G-matrix                .... done
Diagonalizing the G-matrix              .... done
The first mode is                       ....   38
The number of degrees of freedom        ....   39

    -----------------------------------------------------------------
                    Redundant Internal Coordinates


    -----------------------------------------------------------------
         Definition                    Initial Value    Approx d2E/dq
    -----------------------------------------------------------------
      1. B(C   1,N   0)                  1.4023         0.534913   
      2. B(C   2,C   1)                  1.4398         0.520254   
      3. B(C   3,C   2)                  1.3736         0.663611   
      4. B(N   4,C   3)                  1.3736         0.594395   
      5. B(C   5,N   4)                  1.3824         0.575347   
      6. B(C   5,N   0)                  1.3970         0.545389   
      7. B(N   6,C   3)                  1.3560         0.633937   
      8. B(C   7,N   6)                  1.3246         0.711546   
      9. B(N   8,C   7)                  1.3520         0.643404   
     10. B(N   8,C   2)                  1.3783         0.584249   
     11. B(H   9,N   0)                  1.0156         0.423865   
     12. B(H  10,N   4)                  1.0125         0.428809   
     13. B(H  11,N   8)                  1.0116         0.430179   
     14. B(O  12,C   1)                  1.2147         1.065485   
     15. B(O  13,C   5)                  1.2107         1.081203   
     16. B(H  14,C   7)                  1.0874         0.363591   
     17. A(C   5,N   0,H   9)          114.2042         0.349734   
     18. A(C   1,N   0,C   5)          129.7079         0.407868   
     19. A(C   1,N   0,H   9)          116.0876         0.348592   
     20. A(N   0,C   1,O  12)          122.3193         0.460056   
     21. A(N   0,C   1,C   2)          109.9617         0.407099   
     22. A(C   2,C   1,O  12)          127.7191         0.460789   
     23. A(C   3,C   2,N   8)          104.6804         0.431892   
     24. A(C   1,C   2,N   8)          131.9924         0.413515   
     25. A(C   1,C   2,C   3)          123.3272         0.425777   
     26. A(C   2,C   3,N   6)          112.0015         0.438286   
     27. A(C   2,C   3,N   4)          121.1368         0.433231   
     28. A(N   4,C   3,N   6)          126.8617         0.426882   
     29. A(C   5,N   4,H  10)          117.1619         0.353602   
     30. A(C   3,N   4,H  10)          121.6263         0.355560   
     31. A(C   3,N   4,C   5)          121.2117         0.419546   
     32. A(N   0,C   5,N   4)          114.6546         0.413171   
     33. A(N   4,C   5,O  13)          123.1404         0.467479   
     34. A(N   0,C   5,O  13)          122.2050         0.462926   
     35. A(C   3,N   6,C   7)          103.8316         0.440923   
     36. A(N   6,C   7,H  14)          124.5975         0.359615   
     37. A(N   6,C   7,N   8)          113.0114         0.442106   
     38. A(N   8,C   7,H  14)          122.3910         0.353519   
     39. A(C   2,N   8,C   7)          106.4751         0.426699   
     40. A(C   7,N   8,H  11)          127.8748         0.360579   
     41. A(C   2,N   8,H  11)          125.6502         0.354715   
     42. D(O  12,C   1,N   0,H   9)     -0.0702         0.022742   
     43. D(C   2,C   1,N   0,C   5)      0.0938         0.022742   
     44. D(C   2,C   1,N   0,H   9)    179.9105         0.022742   
     45. D(O  12,C   1,N   0,C   5)   -179.8869         0.022742   
     46. D(C   3,C   2,C   1,O  12)    179.9199         0.018459   
     47. D(N   8,C   2,C   1,N   0)   -179.9945         0.018459   
     48. D(C   3,C   2,C   1,N   0)     -0.0595         0.018459   
     49. D(N   8,C   2,C   1,O  12)     -0.0151         0.018459   
     50. D(N   6,C   3,C   2,N   8)      0.0010         0.030754   
     51. D(N   6,C   3,C   2,C   1)   -179.9491         0.030754   
     52. D(N   4,C   3,C   2,N   8)    179.9920         0.030754   
     53. D(N   4,C   3,C   2,C   1)      0.0419         0.030754   
     54. D(H  10,N   4,C   3,C   2)   -179.9591         0.028431   
     55. D(C   5,N   4,C   3,N   6)    179.9463         0.028431   
     56. D(C   5,N   4,C   3,C   2)     -0.0433         0.028431   
     57. D(H  10,N   4,C   3,N   6)      0.0305         0.028431   
     58. D(O  13,C   5,N   4,H  10)     -0.0062         0.026523   
     59. D(N   0,C   5,N   4,H  10)    179.9842         0.026523   
     60. D(N   0,C   5,N   4,C   3)      0.0647         0.026523   
     61. D(O  13,C   5,N   0,H   9)      0.0715         0.023687   
     62. D(O  13,C   5,N   0,C   1)    179.8911         0.023687   
     63. D(O  13,C   5,N   4,C   3)   -179.9257         0.026523   
     64. D(N   4,C   5,N   0,H   9)   -179.9189         0.023687   
     65. D(N   4,C   5,N   0,C   1)     -0.0994         0.023687   
     66. D(C   7,N   6,C   3,N   4)   -179.9932         0.029583   
     67. D(C   7,N   6,C   3,C   2)     -0.0029         0.029583   
     68. D(H  14,C   7,N   6,C   3)   -179.9867         0.038036   
     69. D(N   8,C   7,N   6,C   3)      0.0038         0.038036   
     70. D(H  11,N   8,C   2,C   1)     -0.0519         0.027404   
     71. D(C   7,N   8,C   2,C   3)      0.0013         0.027404   
     72. D(C   7,N   8,C   2,C   1)    179.9452         0.027404   
     73. D(H  11,N   8,C   7,H  14)     -0.0155         0.033725   
     74. D(H  11,N   8,C   7,N   6)    179.9937         0.033725   
     75. D(C   2,N   8,C   7,H  14)    179.9874         0.033725   
     76. D(C   2,N   8,C   7,N   6)     -0.0033         0.033725   
     77. D(H  11,N   8,C   2,C   3)   -179.9958         0.027404   
    -----------------------------------------------------------------

Number of atoms                         .... 15
Number of degrees of freedom            .... 77

         *************************************************************
         *                GEOMETRY OPTIMIZATION CYCLE   1            *
         *************************************************************
---------------------------------
CARTESIAN COORDINATES (ANGSTROEM)
---------------------------------
  N     -3.496257   -0.543515   -0.115550
  C     -2.279446    0.150725   -0.177131
  C     -1.180304   -0.776847   -0.108955
  C     -1.345534   -2.136000    0.001328
  N     -2.598112   -2.697340    0.052940
  C     -3.736575   -1.915106   -0.003319
  N     -0.158497   -2.789925    0.048101
  C      0.740501   -1.820611   -0.034492
  N      0.185285   -0.591620   -0.130674
  H     -4.337129    0.024694   -0.155017
  H     -2.728481   -3.698033    0.134799
  H      0.658302    0.299500   -0.204736
  O     -2.226093    1.360434   -0.273392
  O     -4.856728   -2.372456    0.040592
  H      1.816893   -1.974607   -0.027660

----------------------------
CARTESIAN COORDINATES (A.U.)
----------------------------
  NO LB      ZA    FRAG     MASS         X           Y           Z
   0 N     7.0000    0    14.007   -6.606968   -1.027094   -0.218358
   1 C     6.0000    0    12.011   -4.307529    0.284829   -0.334729
   2 C     6.0000    0    12.011   -2.230451   -1.468028   -0.205895
   3 C     6.0000    0    12.011   -2.542691   -4.036455    0.002510
   4 N     7.0000    0    14.007   -4.909720   -5.097234    0.100042
   5 C     6.0000    0    12.011   -7.061103   -3.619026   -0.006272
   6 N     7.0000    0    14.007   -0.299516   -5.272194    0.090898
   7 C     6.0000    0    12.011    1.399344   -3.440456   -0.065180
   8 N     7.0000    0    14.007    0.350138   -1.118000   -0.246938
   9 H     1.0000    0     1.008   -8.195986    0.046665   -0.292940
  10 H     1.0000    0     1.008   -5.156082   -6.988270    0.254733
  11 H     1.0000    0     1.008    1.244010    0.565973   -0.386895
  12 O     8.0000    0    15.999   -4.206706    2.570848   -0.516636
  13 O     8.0000    0    15.999   -9.177886   -4.483292    0.076708
  14 H     1.0000    0     1.008    3.433430   -3.731466   -0.052270

--------------------------------
INTERNAL COORDINATES (ANGSTROEM)
--------------------------------
 N      0   0   0     0.000000000000     0.00000000     0.00000000
 C      1   0   0     1.402280430899     0.00000000     0.00000000
 C      2   1   0     1.439844060419   109.96168849     0.00000000
 C      3   2   1     1.373593888454   123.32717055   359.94048706
 N      4   3   2     1.373578552624   121.13684490     0.04189822
 C      5   4   3     1.382444613070   121.21168665   359.95672729
 N      4   3   2     1.356046628447   112.00147766   180.05089638
 C      7   4   3     1.324608862362   103.83156136     0.00000000
 N      8   7   4     1.352011339398   113.01143802     0.00000000
 H      1   2   3     1.015620417358   116.08762986   179.91053309
 H      5   4   3     1.012464049876   121.62634834   180.04088425
 H      9   8   7     1.011595332400   127.87476359   179.99370601
 O      2   1   3     1.214705144227   122.31925442   180.01928355
 O      6   5   4     1.210718770743   123.14040600   180.07432268
 H      8   7   4     1.087373524555   124.59752694   180.01326891

---------------------------
INTERNAL COORDINATES (A.U.)
---------------------------
 N      0   0   0     0.000000000000     0.00000000     0.00000000
 C      1   0   0     2.649925977356     0.00000000     0.00000000
 C      2   1   0     2.720910949745   109.96168849     0.00000000
 C      3   2   1     2.595716268406   123.32717055   359.94048706
 N      4   3   2     2.595687287887   121.13684490     0.04189822
 C      5   4   3     2.612441714017   121.21168665   359.95672729
 N      4   3   2     2.562556752592   112.00147766   180.05089638
 C      7   4   3     2.503147984430   103.83156136     0.00000000
 N      8   7   4     2.554931161418   113.01143802     0.00000000
 H      1   2   3     1.919244444825   116.08762986   179.91053309
 H      5   4   3     1.913279774706   121.62634834   180.04088425
 H      9   8   7     1.911638136589   127.87476359   179.99370601
 O      2   1   3     2.295460056054   122.31925442   180.01928355
 O      6   5   4     2.287926901902   123.14040600   180.07432268
 H      8   7   4     2.054838166686   124.59752694   180.01326891

---------------------
BASIS SET INFORMATION
---------------------
There are 4 groups of distinct atoms

 Group   1 Type N   : 17s4p1d contracted to 3s2p1d pattern {881/31/1}
 Group   2 Type C   : 17s4p1d contracted to 3s2p1d pattern {881/31/1}
 Group   3 Type H   : 4s1p contracted to 2s1p pattern {31/1}
 Group   4 Type O   : 17s4p1d contracted to 3s2p1d pattern {881/31/1}

Atom   0N    basis set group =>   1
Atom   1C    basis set group =>   2
Atom   2C    basis set group =>   2
Atom   3C    basis set group =>   2
Atom   4N    basis set group =>   1
Atom   5C    basis set group =>   2
Atom   6N    basis set group =>   1
Atom   7C    basis set group =>   2
Atom   8N    basis set group =>   1
Atom   9H    basis set group =>   3
Atom  10H    basis set group =>   3
Atom  11H    basis set group =>   3
Atom  12O    basis set group =>   4
Atom  13O    basis set group =>   4
Atom  14H    basis set group =>   3
---------------------------------
AUXILIARY/J BASIS SET INFORMATION
---------------------------------
There are 4 groups of distinct atoms

 Group   1 Type N   : 12s5p4d2f1g contracted to 6s4p3d1f1g pattern {711111/2111/211/2/1}
 Group   2 Type C   : 12s5p4d2f1g contracted to 6s4p3d1f1g pattern {711111/2111/211/2/1}
 Group   3 Type H   : 5s2p1d contracted to 3s1p1d pattern {311/2/1}
 Group   4 Type O   : 12s5p4d2f1g contracted to 6s4p3d1f1g pattern {711111/2111/211/2/1}

Atom   0N    basis set group =>   1
Atom   1C    basis set group =>   2
Atom   2C    basis set group =>   2
Atom   3C    basis set group =>   2
Atom   4N    basis set group =>   1
Atom   5C    basis set group =>   2
Atom   6N    basis set group =>   1
Atom   7C    basis set group =>   2
Atom   8N    basis set group =>   1
Atom   9H    basis set group =>   3
Atom  10H    basis set group =>   3
Atom  11H    basis set group =>   3
Atom  12O    basis set group =>   4
Atom  13O    basis set group =>   4
Atom  14H    basis set group =>   3


           ************************************************************
           *        Program running with 16 parallel MPI-processes    *
           *              working on a common directory               *
           ************************************************************
------------------------------------------------------------------------------
                           ORCA GTO INTEGRAL CALCULATION
                           -- RI-GTO INTEGRALS CHOSEN --
------------------------------------------------------------------------------
------------------------------------------------------------------------------
                   ___                                                        
                  /   \      - P O W E R E D   B Y -                         
                 /     \                                                     
                 |  |  |   _    _      __       _____    __    __             
                 |  |  |  | |  | |    /  \     |  _  \  |  |  /  |          
                  \  \/   | |  | |   /    \    | | | |  |  | /  /          
                 / \  \   | |__| |  /  /\  \   | |_| |  |  |/  /          
                |  |  |   |  __  | /  /__\  \  |    /   |      \           
                |  |  |   | |  | | |   __   |  |    \   |  |\   \          
                \     /   | |  | | |  |  |  |  | |\  \  |  | \   \       
                 \___/    |_|  |_| |__|  |__|  |_| \__\ |__|  \__/        
                                                                              
                      - O R C A' S   B I G   F R I E N D -                    
                                      &                                       
                       - I N T E G R A L  F E E D E R -                       
                                                                              
 v1 FN, 2020, v2 2021                                                         
------------------------------------------------------------------------------


Reading SHARK input file xanthine_opt_followiroot_9.SHARKINP.tmp ... ok
----------------------
SHARK INTEGRAL PACKAGE
----------------------

Number of atoms                             ...     15
Number of basis functions                   ...    240
Number of shells                            ...    144
Maximum angular momentum                    ...      2
Integral batch strategy                     ... SHARK/LIBINT Hybrid
RI-J (if used) integral strategy            ... SPLIT-RIJ (Revised 2003 algorithm where possible)
Printlevel                                  ...      1
Contraction scheme used                     ... PARTIAL GENERAL contraction
Coulomb Range Separation                    ... NOT USED
Exchange Range Separation                   ... Long Range
   Mu parameter                             ...  0.330000
   Scaling (regular/separated)              ...  0.190000  0.460000
Finite Nucleus Model                        ... NOT USED
Auxiliary Coulomb fitting basis             ... AVAILABLE
   # of basis functions in Aux-J            ...    583
   # of shells in Aux-J                     ...    185
   Maximum angular momentum in Aux-J        ...      4
Auxiliary J/K fitting basis                 ... NOT available
Auxiliary Correlation fitting basis         ... NOT available
Auxiliary 'external' fitting basis          ... NOT available
Integral threshold                          ...     3.000000e-16
Primitive cut-off                           ...     3.000000e-16
Primitive pair pre-selection threshold      ...     3.000000e-16

Calculating pre-screening integrals         ... done (  0.0 sec) Dimension = 144
Calculating pre-screening integrals (ORCA)  ... done (  0.1 sec) Dimension = 78
Organizing shell pair data                  ... done (  0.0 sec)
Shell pair information
Total number of shell pairs                 ...     10440
Shell pairs after pre-screening             ...      7121
Total number of primitive shell pairs       ...     15270
Primitive shell pairs kept                  ...      9684
          la=0 lb=0:   2993 shell pairs
          la=1 lb=0:   2456 shell pairs
          la=1 lb=1:    343 shell pairs
          la=2 lb=0:    989 shell pairs
          la=2 lb=1:    276 shell pairs
          la=2 lb=2:     64 shell pairs

Calculating one electron integrals          ... done (  0.0 sec)
Calculating RI/J V-Matrix + Cholesky decomp.... done (  0.0 sec)
Calculating Nuclear repulsion               ... done (  0.0 sec) ENN=    597.622206529867 Eh

SHARK setup successfully completed in   0.3 seconds

Maximum memory used throughout the entire GTOINT-calculation: 18.5 MB


           ************************************************************
           *        Program running with 16 parallel MPI-processes    *
           *              working on a common directory               *
           ************************************************************
-------------------------------------------------------------------------------
                                 ORCA SCF
-------------------------------------------------------------------------------

------------
SCF SETTINGS
------------
Hamiltonian:
 Density Functional     Method          .... DFT(GTOs)
 Exchange Functional    Exchange        .... WB88
 Correlation Functional Correlation     .... LYP
 LDA part of GGA corr.  LDAOpt          .... VWN-5
 Gradients option       PostSCFGGA      .... off
 Hybrid DFT is turned on
   Fraction HF Exchange ScalHFX         ....  0.190000
   Scaling of DF-GGA-X  ScalDFX         ....  0.350000
   Scaling of DF-GGA-C  ScalDFC         ....  0.810000
   Scaling of DF-LDA-C  ScalLDAC        ....  1.000000
   Perturbative correction              ....  0.000000
   Density functional embedding theory  .... OFF
 Long-range corrected/Screened/Range-Separated Hybrid DFT is turned on
   Amount of maximum screened exact exchange              ....  0.460000
   Range separation parameter mu (erf(mu*r12)/r12)        ....  0.330000
 RI-approximation to the Coulomb term is turned on
   Number of AuxJ basis functions       .... 583
   RIJ-COSX (HFX calculated with COS-X)).... on


General Settings:
 Integral files         IntName         .... xanthine_opt_followiroot_9
 Hartree-Fock type      HFTyp           .... RHF
 Total Charge           Charge          ....    0
 Multiplicity           Mult            ....    1
 Number of Electrons    NEL             ....   78
 Basis Dimension        Dim             ....  174
 Nuclear Repulsion      ENuc            ....    597.6222065299 Eh

Convergence Acceleration:
 DIIS                   CNVDIIS         .... on
   Start iteration      DIISMaxIt       ....    12
   Startup error        DIISStart       ....  0.200000
   # of expansion vecs  DIISMaxEq       ....     5
   Bias factor          DIISBfac        ....   1.050
   Max. coefficient     DIISMaxC        ....  10.000
 Trust-Rad. Augm. Hess. CNVTRAH         .... auto
   Auto Start mean grad. ratio tolernc. ....  1.125000
   Auto Start start iteration           ....    20
   Auto Start num. interpolation iter.  ....    10
   Max. Number of Micro iterations      ....    16
   Max. Number of Macro iterations      .... Maxiter - #DIIS iter
   Number of Davidson start vectors     ....     2
   Converg. threshold I  (grad. norm)   ....   1.000e-09
   Converg. threshold II (energy diff.) ....   1.000e-14
   Grad. Scal. Fac. for Micro threshold ....   0.100
   Minimum threshold for Micro iter.    ....   0.010
   NR start threshold (gradient norm)   ....   0.001
   Initial trust radius                 ....   0.400
   Minimum AH scaling param. (alpha)    ....   1.000
   Maximum AH scaling param. (alpha)    .... 1000.000
   Orbital update algorithm             .... Taylor
   White noise on init. David. guess    .... on
   Maximum white noise                  ....   0.010
   Quad. conv. algorithm                .... NR
 SOSCF                  CNVSOSCF        .... on
   Start iteration      SOSCFMaxIt      ....   150
   Startup grad/error   SOSCFStart      ....  0.003300
 Level Shifting         CNVShift        .... on
   Level shift para.    LevelShift      ....    0.2500
   Turn off err/grad.   ShiftErr        ....    0.0010
 Zerner damping         CNVZerner       .... off
 Static damping         CNVDamp         .... on
   Fraction old density DampFac         ....    0.7000
   Max. Damping (<1)    DampMax         ....    0.9800
   Min. Damping (>=0)   DampMin         ....    0.0000
   Turn off err/grad.   DampErr         ....    0.1000
 Fernandez-Rico         CNVRico         .... off

SCF Procedure:
 Maximum # iterations   MaxIter         ....   125
 SCF integral mode      SCFMode         .... Direct
   Integral package                     .... SHARK and LIBINT hybrid scheme
 Reset frequency        DirectResetFreq ....    20
 Integral Threshold     Thresh          ....  3.000e-16 Eh
 Primitive CutOff       TCut            ....  3.000e-16 Eh

Convergence Tolerance:
 Convergence Check Mode ConvCheckMode   .... All-Criteria
 Convergence forced     ConvForced      .... 1
 Energy Change          TolE            ....  1.000e-14 Eh
 Max Density Change     TolMaxP         ....  1.000e-14
 RMS Density Change     TolRMSP         ....  1.000e-14
 Orbital Gradient       TolG            ....  1.000e-09
 Orbital Rotation angle TolX            ....  1.000e-09
 DIIS Error             TolErr          ....  1.000e-14


Diagonalization of the overlap matrix:
Smallest eigenvalue                        ... 1.001e-03
Time for diagonalization                   ...    0.007 sec
Threshold for overlap eigenvalues          ... 1.000e-08
Number of eigenvalues below threshold      ... 0
Time for construction of square roots      ...    0.007 sec
Total time needed                          ...    0.014 sec

Time for model grid setup =    0.088 sec

------------------------------
INITIAL GUESS: MODEL POTENTIAL
------------------------------
Loading Hartree-Fock densities                     ... done
Calculating cut-offs                               ... done
Initializing the effective Hamiltonian             ... done
Setting up the integral package (SHARK)            ... done
Starting the Coulomb interaction                   ... done (   0.0 sec)
Reading the grid                                   ... done
Mapping shells                                     ... done
Starting the XC term evaluation                    ... done (   0.0 sec)
  promolecular density results
     # of electrons  =     78.000105081
     EX              =    -69.321408510
     EC              =     -2.670996767
     EX+EC           =    -71.992405276
Transforming the Hamiltonian                       ... done (   0.0 sec)
Diagonalizing the Hamiltonian                      ... done (   0.0 sec)
Back transforming the eigenvectors                 ... done (   0.0 sec)
Now organizing SCF variables                       ... done
                      ------------------
                      INITIAL GUESS DONE (   0.2 sec)
                      ------------------
-------------------
DFT GRID GENERATION
-------------------

General Integration Accuracy     IntAcc      ... 4.959
Radial Grid Type                 RadialGrid  ... OptM3 with GC (2021)
Angular Grid (max. ang.)         AngularGrid ... 6 (Lebedev-590)
Angular grid pruning method      GridPruning ... 4 (adaptive)
Weight generation scheme         WeightScheme... Becke
Basis function cutoff            BFCut       ... 3.0000e-16
Integration weight cutoff        WCut        ... 1.0000e-14
Angular grids for H and He will be reduced by one unit
Partially contracted basis set               ... off
Rotationally invariant grid construction     ... off

Total number of grid points                  ...   192125
Total number of batches                      ...     3009
Average number of points per batch           ...       63
Average number of grid points per atom       ...    12808
Time for grid setup =    3.164 sec

--------------------
COSX GRID GENERATION
--------------------

GRIDX 1
-------
General Integration Accuracy     IntAcc      ... 4.020
Radial Grid Type                 RadialGrid  ... OptM3 with GC (2021)
Angular Grid (max. ang.)         AngularGrid ... 2 (Lebedev-110)
Angular grid pruning method      GridPruning ... 4 (adaptive)
Weight generation scheme         WeightScheme... Becke
Basis function cutoff            BFCut       ... 3.0000e-16
Integration weight cutoff        WCut        ... 1.0000e-14
Angular grids for H and He will be reduced by one unit
Partially contracted basis set               ... on
Rotationally invariant grid construction     ... off

Total number of grid points                  ...    22890
Total number of batches                      ...      365
Average number of points per batch           ...       62
Average number of grid points per atom       ...     1526
UseSFitting                                  ... on

GRIDX 2
-------
General Integration Accuracy     IntAcc      ... 4.338
Radial Grid Type                 RadialGrid  ... OptM3 with GC (2021)
Angular Grid (max. ang.)         AngularGrid ... 3 (Lebedev-194)
Angular grid pruning method      GridPruning ... 4 (adaptive)
Weight generation scheme         WeightScheme... Becke
Basis function cutoff            BFCut       ... 3.0000e-16
Integration weight cutoff        WCut        ... 1.0000e-14
Angular grids for H and He will be reduced by one unit
Partially contracted basis set               ... on
Rotationally invariant grid construction     ... off

Total number of grid points                  ...    50540
Total number of batches                      ...      798
Average number of points per batch           ...       63
Average number of grid points per atom       ...     3369
UseSFitting                                  ... on

GRIDX 3
-------
General Integration Accuracy     IntAcc      ... 4.871
Radial Grid Type                 RadialGrid  ... OptM3 with GC (2021)
Angular Grid (max. ang.)         AngularGrid ... 4 (Lebedev-302)
Angular grid pruning method      GridPruning ... 4 (adaptive)
Weight generation scheme         WeightScheme... Becke
Basis function cutoff            BFCut       ... 3.0000e-16
Integration weight cutoff        WCut        ... 1.0000e-14
Angular grids for H and He will be reduced by one unit
Partially contracted basis set               ... on
Rotationally invariant grid construction     ... off

Total number of grid points                  ...    92258
Total number of batches                      ...     1449
Average number of points per batch           ...       63
Average number of grid points per atom       ...     6151
UseSFitting                                  ... on

Time for X-Grid setup             =    1.285 sec

 re-compute Schwartz prescreening matrix in partically contracted basis (1) ...done (   0.112 sec)
--------------
SCF ITERATIONS
--------------
ITER       Energy         Delta-E        Max-DP      RMS-DP      [F,P]     Damp
               ***  Starting incremental Fock matrix formation  ***
  0   -561.9610027162   0.000000000000 0.10980904  0.00266074  0.2652606 0.7000
  1   -562.0916581159  -0.130655399759 0.07770001  0.00183285  0.1170181 0.7000
                               ***Turning on DIIS***
  2   -562.1434916714  -0.051833555426 0.09814985  0.00290676  0.0439325 0.0000
  3   -562.2333841151  -0.089892443792 0.05700250  0.00118593  0.0613685 0.0000
  4   -562.2473388666  -0.013954751426 0.01001922  0.00026318  0.0115379 0.0000
  5   -562.2481295470  -0.000790680382 0.00449529  0.00009954  0.0037423 0.0000
                      *** Initiating the SOSCF procedure ***
                           *** Shutting down DIIS ***
                      *** Re-Reading the Fockian *** 
                      *** Removing any level shift *** 
ITER      Energy       Delta-E        Grad      Rot      Max-DP    RMS-DP
  6   -562.24820395  -0.0000744018  0.000812  0.000812  0.002281  0.000066
               *** Restarting incremental Fock matrix formation ***
  7   -562.24822801  -0.0000240646  0.000316  0.000715  0.001281  0.000040
  8   -562.24822736   0.0000006519  0.000419  0.000687  0.000817  0.000018
  9   -562.24823295  -0.0000055880  0.000057  0.000233  0.000243  0.000006
 10   -562.24823300  -0.0000000479  0.000049  0.000055  0.000110  0.000003
 11   -562.24823312  -0.0000001198  0.000010  0.000025  0.000037  0.000001
 12   -562.24823312   0.0000000003  0.000013  0.000012  0.000027  0.000001
 13   -562.24823312  -0.0000000045  0.000001  0.000004  0.000007  0.000000
 14   -562.24823312  -0.0000000001  0.000001  0.000002  0.000002  0.000000
 15   -562.24823312  -0.0000000001  0.000000  0.000001  0.000001  0.000000
 16   -562.24823312  -0.0000000000  0.000000  0.000000  0.000001  0.000000
 17   -562.24823312  -0.0000000000  0.000000  0.000000  0.000000  0.000000
 18   -562.24823312   0.0000000000  0.000000  0.000000  0.000000  0.000000
 19   -562.24823312  -0.0000000000  0.000000  0.000000  0.000000  0.000000
 20   -562.24823312   0.0000000000  0.000000  0.000000  0.000000  0.000000
                           ***RMSP convergence achieved***
                           ***MAXP convergence achieved***
                       ***Gradient convergence achieved***
                    ***Orbital Rotation convergence achieved***
 21   -562.24823312  -0.0000000000  0.000000  0.000000  0.000000  0.000000
                          ***Energy convergence achieved***
              ***Rediagonalizing the Fockian in SOSCF/NRSCF***

               *****************************************************
               *                     SUCCESS                       *
               *           SCF CONVERGED AFTER  22 CYCLES          *
               *****************************************************

Old exchange energy                            =    -19.537699357 Eh
New exchange energy                            =    -19.537696263 Eh
Exchange energy change after final integration =      0.000003094 Eh
Total energy after final integration           =   -562.248230028 Eh
Final COS-X integration done in                =     5.506 sec

----------------
TOTAL SCF ENERGY
----------------

Total Energy       :         -562.24823003 Eh          -15299.55215 eV

Components:
Nuclear Repulsion  :          597.62220653 Eh           16262.12699 eV
Electronic Energy  :        -1159.87043656 Eh          -31561.67914 eV
One Electron Energy:        -1950.30719711 Eh          -53070.55689 eV
Two Electron Energy:          790.43676055 Eh           21508.87774 eV
Max COSX asymmetry :            0.00000020 Eh               0.00001 eV

Virial components:
Potential Energy   :        -1121.31873346 Eh          -30512.63397 eV
Kinetic Energy     :          559.07050343 Eh           15213.08182 eV
Virial Ratio       :            2.00568395


DFT components:
N(Alpha)           :       39.000000583362 electrons
N(Beta)            :       39.000000583362 electrons
N(Total)           :       78.000001166724 electrons
E(XC)              :      -53.856663635843 Eh       
DFET-embed. en.    :        0.000000000000 Eh       

---------------
SCF CONVERGENCE
---------------

  Last Energy change         ...    0.0000e+00  Tolerance :   1.0000e-14
  Last MAX-Density change    ...    3.5527e-15  Tolerance :   1.0000e-14
  Last RMS-Density change    ...    6.2336e-17  Tolerance :   1.0000e-14
  Last Orbital Gradient      ...    9.6066e-10  Tolerance :   1.0000e-09
  Last Orbital Rotation      ...    0.0000e+00  Tolerance :   1.0000e-09

             **** THE GBW FILE WAS UPDATED (xanthine_opt_followiroot_9.gbw) ****
             **** DENSITY xanthine_opt_followiroot_9.scfp WAS UPDATED ****
             **** ENERGY FILE WAS UPDATED (xanthine_opt_followiroot_9.en.tmp) ****
             **** THE GBW FILE WAS UPDATED (xanthine_opt_followiroot_9.gbw) ****
             **** DENSITY xanthine_opt_followiroot_9.scfp WAS UPDATED ****
----------------
ORBITAL ENERGIES
----------------

  NO   OCC          E(Eh)            E(eV) 
   0   2.0000     -19.197777      -522.3981 
   1   2.0000     -19.190611      -522.2031 
   2   2.0000     -14.491704      -394.3393 
   3   2.0000     -14.463838      -393.5810 
   4   2.0000     -14.455312      -393.3490 
   5   2.0000     -14.414921      -392.2499 
   6   2.0000     -10.413621      -283.3690 
   7   2.0000     -10.391871      -282.7772 
   8   2.0000     -10.353755      -281.7400 
   9   2.0000     -10.348701      -281.6025 
  10   2.0000     -10.306661      -280.4585 
  11   2.0000      -1.164369       -31.6841 
  12   2.0000      -1.139256       -31.0007 
  13   2.0000      -1.130519       -30.7630 
  14   2.0000      -1.056249       -28.7420 
  15   2.0000      -1.012206       -27.5435 
  16   2.0000      -0.980167       -26.6717 
  17   2.0000      -0.869353       -23.6563 
  18   2.0000      -0.762815       -20.7572 
  19   2.0000      -0.748626       -20.3711 
  20   2.0000      -0.717999       -19.5377 
  21   2.0000      -0.701781       -19.0964 
  22   2.0000      -0.648827       -17.6555 
  23   2.0000      -0.606596       -16.5063 
  24   2.0000      -0.571300       -15.5459 
  25   2.0000      -0.569642       -15.5007 
  26   2.0000      -0.548882       -14.9358 
  27   2.0000      -0.527567       -14.3558 
  28   2.0000      -0.521854       -14.2004 
  29   2.0000      -0.506088       -13.7714 
  30   2.0000      -0.495447       -13.4818 
  31   2.0000      -0.482945       -13.1416 
  32   2.0000      -0.417393       -11.3579 
  33   2.0000      -0.380476       -10.3533 
  34   2.0000      -0.361091        -9.8258 
  35   2.0000      -0.357413        -9.7257 
  36   2.0000      -0.347598        -9.4586 
  37   2.0000      -0.331382        -9.0174 
  38   2.0000      -0.287004        -7.8098 
  39   0.0000       0.008970         0.2441 
  40   0.0000       0.073726         2.0062 
  41   0.0000       0.083695         2.2775 
  42   0.0000       0.083953         2.2845 
  43   0.0000       0.106876         2.9083 
  44   0.0000       0.127466         3.4685 
  45   0.0000       0.134287         3.6541 
  46   0.0000       0.205650         5.5960 
  47   0.0000       0.226411         6.1610 
  48   0.0000       0.235587         6.4107 
  49   0.0000       0.268903         7.3172 
  50   0.0000       0.290249         7.8981 
  51   0.0000       0.295452         8.0396 
  52   0.0000       0.305965         8.3257 
  53   0.0000       0.330700         8.9988 
  54   0.0000       0.373916        10.1748 
  55   0.0000       0.389286        10.5930 
  56   0.0000       0.403300        10.9744 
  57   0.0000       0.453439        12.3387 
  58   0.0000       0.466615        12.6972 
  59   0.0000       0.476887        12.9768 
  60   0.0000       0.497917        13.5490 
  61   0.0000       0.513314        13.9680 
  62   0.0000       0.517133        14.0719 
  63   0.0000       0.530546        14.4369 
  64   0.0000       0.544415        14.8143 
  65   0.0000       0.568388        15.4666 
  66   0.0000       0.580409        15.7937 
  67   0.0000       0.605024        16.4635 
  68   0.0000       0.610049        16.6003 
  69   0.0000       0.643907        17.5216 
  70   0.0000       0.671437        18.2707 
  71   0.0000       0.672464        18.2987 
  72   0.0000       0.685254        18.6467 
  73   0.0000       0.697407        18.9774 
  74   0.0000       0.726578        19.7712 
  75   0.0000       0.748408        20.3652 
  76   0.0000       0.761819        20.7301 
  77   0.0000       0.792549        21.5664 
  78   0.0000       0.818726        22.2787 
  79   0.0000       0.822810        22.3898 
  80   0.0000       0.845972        23.0201 
  81   0.0000       0.847219        23.0540 
  82   0.0000       0.881421        23.9847 
  83   0.0000       0.898404        24.4468 
  84   0.0000       0.908398        24.7188 
  85   0.0000       0.922301        25.0971 
  86   0.0000       0.935353        25.4522 
  87   0.0000       0.952672        25.9235 
  88   0.0000       0.983037        26.7498 
  89   0.0000       1.021909        27.8076 
  90   0.0000       1.029885        28.0246 
  91   0.0000       1.050846        28.5950 
  92   0.0000       1.097146        29.8549 
  93   0.0000       1.118946        30.4481 
  94   0.0000       1.123926        30.5836 
  95   0.0000       1.126194        30.6453 
  96   0.0000       1.135851        30.9081 
  97   0.0000       1.149336        31.2750 
  98   0.0000       1.159937        31.5635 
  99   0.0000       1.176414        32.0118 
 100   0.0000       1.193634        32.4804 
 101   0.0000       1.199609        32.6430 
 102   0.0000       1.239151        33.7190 
 103   0.0000       1.239417        33.7263 
 104   0.0000       1.241658        33.7872 
 105   0.0000       1.268272        34.5114 
 106   0.0000       1.354121        36.8475 
 107   0.0000       1.389944        37.8223 
 108   0.0000       1.425408        38.7873 
 109   0.0000       1.481958        40.3261 
 110   0.0000       1.495322        40.6898 
 111   0.0000       1.541446        41.9449 
 112   0.0000       1.561388        42.4875 
 113   0.0000       1.585880        43.1540 
 114   0.0000       1.607553        43.7437 
 115   0.0000       1.632696        44.4279 
 116   0.0000       1.666053        45.3356 
 117   0.0000       1.673732        45.5446 
 118   0.0000       1.696274        46.1580 
 119   0.0000       1.705846        46.4184 
 120   0.0000       1.729398        47.0593 
 121   0.0000       1.738496        47.3069 
 122   0.0000       1.747867        47.5619 
 123   0.0000       1.780805        48.4582 
 124   0.0000       1.792359        48.7726 
 125   0.0000       1.812735        49.3270 
 126   0.0000       1.848837        50.3094 
 127   0.0000       1.896103        51.5956 
 128   0.0000       1.917552        52.1792 
 129   0.0000       1.923643        52.3450 
 130   0.0000       1.947965        53.0068 
 131   0.0000       1.971825        53.6561 
 132   0.0000       2.013766        54.7974 
 133   0.0000       2.038056        55.4583 
 134   0.0000       2.075531        56.4781 
 135   0.0000       2.112556        57.4856 
 136   0.0000       2.143046        58.3152 
 137   0.0000       2.150138        58.5082 
 138   0.0000       2.189541        59.5805 
 139   0.0000       2.212769        60.2125 
 140   0.0000       2.235721        60.8371 
 141   0.0000       2.269731        61.7625 
 142   0.0000       2.303723        62.6875 
 143   0.0000       2.319564        63.1185 
 144   0.0000       2.324270        63.2466 
 145   0.0000       2.374271        64.6072 
 146   0.0000       2.413461        65.6736 
 147   0.0000       2.471664        67.2574 
 148   0.0000       2.477410        67.4137 
 149   0.0000       2.485013        67.6206 
 150   0.0000       2.516605        68.4803 
 151   0.0000       2.551414        69.4275 
 152   0.0000       2.573694        70.0338 
 153   0.0000       2.607315        70.9486 
 154   0.0000       2.654524        72.2333 
 155   0.0000       2.671848        72.7047 
 156   0.0000       2.695290        73.3426 
 157   0.0000       2.769080        75.3505 
 158   0.0000       2.770911        75.4003 
 159   0.0000       2.806967        76.3814 
 160   0.0000       2.848388        77.5086 
 161   0.0000       2.853040        77.6352 
 162   0.0000       2.870288        78.1045 
 163   0.0000       3.010992        81.9333 
 164   0.0000       3.058807        83.2344 
 165   0.0000       3.141224        85.4771 
 166   0.0000       3.156213        85.8849 
 167   0.0000       3.212642        87.4204 
 168   0.0000       3.366348        91.6030 
 169   0.0000       3.476731        94.6067 
 170   0.0000       3.512159        95.5707 
 171   0.0000       3.544857        96.4605 
 172   0.0000       3.571569        97.1873 
 173   0.0000       3.649219        99.3003 

                    ********************************
                    * MULLIKEN POPULATION ANALYSIS *
                    ********************************

-----------------------
MULLIKEN ATOMIC CHARGES
-----------------------
   0 N :   -0.117429
   1 C :    0.139774
   2 C :   -0.009733
   3 C :    0.143165
   4 N :   -0.113372
   5 C :    0.172272
   6 N :   -0.198338
   7 C :    0.141796
   8 N :   -0.064273
   9 H :    0.118239
  10 H :    0.113103
  11 H :    0.113962
  12 O :   -0.226608
  13 O :   -0.238713
  14 H :    0.026154
Sum of atomic charges:   -0.0000000

--------------------------------
MULLIKEN REDUCED ORBITAL CHARGES
--------------------------------
  0 N s       :     3.381854  s :     3.381854
      pz      :     1.614676  p :     3.710966
      px      :     1.063850
      py      :     1.032440
      dz2     :     0.002461  d :     0.024610
      dxz     :     0.002462
      dyz     :     0.003558
      dx2y2   :     0.007814
      dxy     :     0.008316
  1 C s       :     3.021950  s :     3.021950
      pz      :     0.830625  p :     2.625514
      px      :     0.927170
      py      :     0.867718
      dz2     :     0.009206  d :     0.212763
      dxz     :     0.019834
      dyz     :     0.049572
      dx2y2   :     0.044215
      dxy     :     0.089936
  2 C s       :     3.090846  s :     3.090846
      pz      :     1.167968  p :     2.821081
      px      :     0.764485
      py      :     0.888628
      dz2     :     0.006659  d :     0.097806
      dxz     :     0.019797
      dyz     :     0.011556
      dx2y2   :     0.032311
      dxy     :     0.027483
  3 C s       :     3.032132  s :     3.032132
      pz      :     0.975009  p :     2.672870
      px      :     0.744226
      py      :     0.953635
      dz2     :     0.008121  d :     0.151833
      dxz     :     0.033514
      dyz     :     0.020160
      dx2y2   :     0.045832
      dxy     :     0.044206
  4 N s       :     3.380080  s :     3.380080
      pz      :     1.623332  p :     3.705321
      px      :     1.041675
      py      :     1.040314
      dz2     :     0.002428  d :     0.027970
      dxz     :     0.006167
      dyz     :     0.001828
      dx2y2   :     0.008817
      dxy     :     0.008731
  5 C s       :     2.959627  s :     2.959627
      pz      :     0.849291  p :     2.620322
      px      :     0.869863
      py      :     0.901168
      dz2     :     0.010536  d :     0.247779
      dxz     :     0.052256
      dyz     :     0.029561
      dx2y2   :     0.077446
      dxy     :     0.077980
  6 N s       :     3.495924  s :     3.495924
      pz      :     1.199878  p :     3.660548
      px      :     0.982390
      py      :     1.478281
      dz2     :     0.004826  d :     0.041866
      dxz     :     0.006281
      dyz     :     0.007776
      dx2y2   :     0.007261
      dxy     :     0.015721
  7 C s       :     3.057638  s :     3.057638
      pz      :     0.974777  p :     2.671461
      px      :     0.871800
      py      :     0.824884
      dz2     :     0.006645  d :     0.129105
      dxz     :     0.011470
      dyz     :     0.028050
      dx2y2   :     0.049598
      dxy     :     0.033342
  8 N s       :     3.384735  s :     3.384735
      pz      :     1.513546  p :     3.643449
      px      :     1.104773
      py      :     1.025130
      dz2     :     0.002469  d :     0.036089
      dxz     :     0.008896
      dyz     :     0.003867
      dx2y2   :     0.010034
      dxy     :     0.010822
  9 H s       :     0.829309  s :     0.829309
      pz      :     0.012286  p :     0.052452
      px      :     0.025104
      py      :     0.015062
 10 H s       :     0.833104  s :     0.833104
      pz      :     0.013643  p :     0.053793
      px      :     0.007210
      py      :     0.032941
 11 H s       :     0.831894  s :     0.831894
      pz      :     0.013178  p :     0.054144
      px      :     0.012583
      py      :     0.028383
 12 O s       :     3.705870  s :     3.705870
      pz      :     1.414051  p :     4.502087
      px      :     1.747820
      py      :     1.340216
      dz2     :     0.002219  d :     0.018651
      dxz     :     0.000049
      dyz     :     0.005693
      dx2y2   :     0.006787
      dxy     :     0.003903
 13 O s       :     3.705390  s :     3.705390
      pz      :     1.453019  p :     4.514174
      px      :     1.390843
      py      :     1.670312
      dz2     :     0.002290  d :     0.019149
      dxz     :     0.004967
      dyz     :     0.000841
      dx2y2   :     0.005537
      dxy     :     0.005514
 14 H s       :     0.945826  s :     0.945826
      pz      :     0.005872  p :     0.028019
      px      :     0.019221
      py      :     0.002927


                     *******************************
                     * LOEWDIN POPULATION ANALYSIS *
                     *******************************

----------------------
LOEWDIN ATOMIC CHARGES
----------------------
   0 N :    0.129723
   1 C :   -0.147047
   2 C :   -0.146709
   3 C :   -0.095460
   4 N :    0.149869
   5 C :   -0.164681
   6 N :   -0.020750
   7 C :   -0.053642
   8 N :    0.220777
   9 H :    0.081339
  10 H :    0.083378
  11 H :    0.085434
  12 O :   -0.069677
  13 O :   -0.079232
  14 H :    0.026678

-------------------------------
LOEWDIN REDUCED ORBITAL CHARGES
-------------------------------
  0 N s       :     3.003378  s :     3.003378
      pz      :     1.508258  p :     3.788930
      px      :     1.141468
      py      :     1.139204
      dz2     :     0.007394  d :     0.077969
      dxz     :     0.005195
      dyz     :     0.008036
      dx2y2   :     0.026414
      dxy     :     0.030929
  1 C s       :     2.809016  s :     2.809016
      pz      :     0.826501  p :     2.809426
      px      :     0.963130
      py      :     1.019796
      dz2     :     0.029198  d :     0.528605
      dxz     :     0.047900
      dyz     :     0.104705
      dx2y2   :     0.114077
      dxy     :     0.232725
  2 C s       :     2.794088  s :     2.794088
      pz      :     1.112343  p :     3.067018
      px      :     0.918699
      py      :     1.035976
      dz2     :     0.022792  d :     0.285603
      dxz     :     0.048630
      dyz     :     0.028393
      dx2y2   :     0.105895
      dxy     :     0.079894
  3 C s       :     2.783246  s :     2.783246
      pz      :     0.954584  p :     2.922573
      px      :     0.933246
      py      :     1.034742
      dz2     :     0.024767  d :     0.389642
      dxz     :     0.073668
      dyz     :     0.050741
      dx2y2   :     0.126932
      dxy     :     0.113534
  4 N s       :     2.974028  s :     2.974028
      pz      :     1.517521  p :     3.789681
      px      :     1.134028
      py      :     1.138132
      dz2     :     0.006603  d :     0.086422
      dxz     :     0.013869
      dyz     :     0.003596
      dx2y2   :     0.032178
      dxy     :     0.030177
  5 C s       :     2.797318  s :     2.797318
      pz      :     0.848956  p :     2.785707
      px      :     0.997812
      py      :     0.938939
      dz2     :     0.030959  d :     0.581657
      dxz     :     0.110715
      dyz     :     0.069153
      dx2y2   :     0.184500
      dxy     :     0.186330
  6 N s       :     3.169728  s :     3.169728
      pz      :     1.172238  p :     3.756813
      px      :     1.101132
      py      :     1.483442
      dz2     :     0.009848  d :     0.094209
      dxz     :     0.015454
      dyz     :     0.008742
      dx2y2   :     0.018977
      dxy     :     0.041188
  7 C s       :     2.824650  s :     2.824650
      pz      :     0.958769  p :     2.905303
      px      :     1.013224
      py      :     0.933309
      dz2     :     0.021001  d :     0.323690
      dxz     :     0.018175
      dyz     :     0.068309
      dx2y2   :     0.126541
      dxy     :     0.089664
  8 N s       :     2.965420  s :     2.965420
      pz      :     1.420076  p :     3.712150
      px      :     1.148627
      py      :     1.143448
      dz2     :     0.006120  d :     0.101653
      dxz     :     0.019530
      dyz     :     0.008004
      dx2y2   :     0.033462
      dxy     :     0.034538
  9 H s       :     0.781022  s :     0.781022
      pz      :     0.041029  p :     0.137639
      px      :     0.060211
      py      :     0.036399
 10 H s       :     0.777010  s :     0.777010
      pz      :     0.043465  p :     0.139612
      px      :     0.019092
      py      :     0.077055
 11 H s       :     0.776140  s :     0.776140
      pz      :     0.039414  p :     0.138426
      px      :     0.032848
      py      :     0.066164
 12 O s       :     3.481958  s :     3.481958
      pz      :     1.394235  p :     4.555646
      px      :     1.715425
      py      :     1.445986
      dz2     :     0.004659  d :     0.032074
      dxz     :     0.000065
      dyz     :     0.006868
      dx2y2   :     0.014151
      dxy     :     0.006330
 13 O s       :     3.481323  s :     3.481323
      pz      :     1.428842  p :     4.565336
      px      :     1.476872
      py      :     1.659623
      dz2     :     0.004834  d :     0.032573
      dxz     :     0.006014
      dyz     :     0.001011
      dx2y2   :     0.010439
      dxy     :     0.010274
 14 H s       :     0.891533  s :     0.891533
      pz      :     0.018208  p :     0.081789
      px      :     0.051913
      py      :     0.011669


                      *****************************
                      * MAYER POPULATION ANALYSIS *
                      *****************************

  NA   - Mulliken gross atomic population
  ZA   - Total nuclear charge
  QA   - Mulliken gross atomic charge
  VA   - Mayer's total valence
  BVA  - Mayer's bonded valence
  FA   - Mayer's free valence

  ATOM       NA         ZA         QA         VA         BVA        FA
  0 N      7.1174     7.0000    -0.1174     3.2686     3.2686    -0.0000
  1 C      5.8602     6.0000     0.1398     4.3910     4.3910    -0.0000
  2 C      6.0097     6.0000    -0.0097     3.7095     3.7095     0.0000
  3 C      5.8568     6.0000     0.1432     4.0751     4.0751     0.0000
  4 N      7.1134     7.0000    -0.1134     3.3515     3.3515    -0.0000
  5 C      5.8277     6.0000     0.1723     4.5496     4.5496     0.0000
  6 N      7.1983     7.0000    -0.1983     3.2357     3.2357    -0.0000
  7 C      5.8582     6.0000     0.1418     4.0593     4.0593    -0.0000
  8 N      7.0643     7.0000    -0.0643     3.5836     3.5836    -0.0000
  9 H      0.8818     1.0000     0.1182     1.0297     1.0297    -0.0000
 10 H      0.8869     1.0000     0.1131     1.0285     1.0285    -0.0000
 11 H      0.8860     1.0000     0.1140     1.0129     1.0129    -0.0000
 12 O      8.2266     8.0000    -0.2266     2.3933     2.3933    -0.0000
 13 O      8.2387     8.0000    -0.2387     2.3843     2.3843    -0.0000
 14 H      0.9738     1.0000     0.0262     0.9968     0.9968     0.0000

  Mayer bond orders larger than 0.100000
B(  0-N ,  1-C ) :   1.1097 B(  0-N ,  5-C ) :   1.1157 B(  0-N ,  9-H ) :   0.9203 
B(  1-C ,  2-C ) :   1.0126 B(  1-C , 12-O ) :   2.2154 B(  2-C ,  3-C ) :   1.3528 
B(  2-C ,  8-N ) :   1.1583 B(  3-C ,  4-N ) :   1.1353 B(  3-C ,  6-N ) :   1.4816 
B(  4-N ,  5-C ) :   1.1498 B(  4-N , 10-H ) :   0.9283 B(  5-C , 13-O ) :   2.2132 
B(  6-N ,  7-C ) :   1.6122 B(  7-C ,  8-N ) :   1.3467 B(  7-C , 14-H ) :   0.9695 
B(  8-N , 11-H ) :   0.9472 

-------
TIMINGS
-------

Total SCF time: 0 days 0 hours 1 min 12 sec 

Total time                  ....      72.373 sec
Sum of individual times     ....      71.965 sec  ( 99.4%)

Fock matrix formation       ....      66.960 sec  ( 92.5%)
  Split-RI-J                ....       1.896 sec  (  2.8% of F)
  Chain of spheres X        ....      57.054 sec  ( 85.2% of F)
  XC integration            ....       7.882 sec  ( 11.8% of F)
    Basis function eval.    ....       1.585 sec  ( 20.1% of XC)
    Density eval.           ....       1.638 sec  ( 20.8% of XC)
    XC-Functional eval.     ....       0.718 sec  (  9.1% of XC)
    XC-Potential eval.      ....       1.217 sec  ( 15.4% of XC)
Diagonalization             ....       0.082 sec  (  0.1%)
Density matrix formation    ....       0.011 sec  (  0.0%)
Population analysis         ....       0.014 sec  (  0.0%)
Initial guess               ....       0.093 sec  (  0.1%)
Orbital Transformation      ....       0.000 sec  (  0.0%)
Orbital Orthonormalization  ....       0.000 sec  (  0.0%)
DIIS solution               ....       0.053 sec  (  0.1%)
SOSCF solution              ....       0.215 sec  (  0.3%)
Grid generation             ....       4.537 sec  (  6.3%)

Maximum memory used throughout the entire SCF-calculation: 64.1 MB


           ************************************************************
           *        Program running with 16 parallel MPI-processes    *
           *              working on a common directory               *
           ************************************************************
------------------------------------------------------------------------------
                        ORCA TD-DFT/TDA CALCULATION
------------------------------------------------------------------------------

Input orbitals are from        ... xanthine_opt_followiroot_9.gbw
CI-vector output               ... xanthine_opt_followiroot_9.cis
Tamm-Dancoff approximation     ... operative
CIS-Integral strategy          ... AO-integrals
Integral handling              ... AO integral Direct
Max. core memory used          ... 512 MB
Reference state                ... RHF
Generation of triplets         ... off
Follow IRoot                   ... on
Number of operators            ... 1
Orbital ranges used for CIS calculation:
 Operator 0:  Orbitals  11... 38  to  39...173
XAS localization array:
 Operator 0:  Orbitals  -1... -1

-------------------
XC-INTEGRATION GRID
-------------------

General Integration Accuracy     IntAcc      ... 3.467
Radial Grid Type                 RadialGrid  ... OptM3 with GC (2021)
Angular Grid (max. ang.)         AngularGrid ... 3 (Lebedev-194)
Angular grid pruning method      GridPruning ... 4 (adaptive)
Weight generation scheme         WeightScheme... Becke
Basis function cutoff            BFCut       ... 3.0000e-16
Integration weight cutoff        WCut        ... 1.0000e-14
Angular grids for H and He will be reduced by one unit
Partially contracted basis set               ... off
Rotationally invariant grid construction     ... off

Total number of grid points                  ...    31642
Total number of batches                      ...      501
Average number of points per batch           ...       63
Average number of grid points per atom       ...     2109

---------------------
COSX-INTEGRATION GRID
---------------------

General Integration Accuracy     IntAcc      ... 3.067
Radial Grid Type                 RadialGrid  ... OptM3 with GC (2021)
Angular Grid (max. ang.)         AngularGrid ... 2 (Lebedev-110)
Angular grid pruning method      GridPruning ... 4 (adaptive)
Weight generation scheme         WeightScheme... Becke
Basis function cutoff            BFCut       ... 3.0000e-16
Integration weight cutoff        WCut        ... 1.0000e-14
Angular grids for H and He will be reduced by one unit
Partially contracted basis set               ... on
Rotationally invariant grid construction     ... off

Total number of grid points                  ...    12987
Total number of batches                      ...      210
Average number of points per batch           ...       61
Average number of grid points per atom       ...      866

---------------
TD-DFT XC SETUP
---------------

DFT calculation                         ... on
Name of the grid file                   ... xanthine_opt_followiroot_9.grid_cis.tmp
Exchange functional (TD-DFT)            ... WB88
Correlation functional (TD-DFT)         ... LYP
 LDA part of GGA corr.  LDAOpt (TD-DFT) ... VWN-5
Hybrid DFT                              ... on
   Exchange mixing (TD-DFT)             ...  0.190
   GGA exch. scaling (TD-DFT)           ...  0.350
   GGA corr. scaling (TD-DFT)           ...  0.810
Range-Separated Exchange                ... on
   Range Range separation parameter mu  .... 0.330
   Max. amount of RS exchange (TD-DFT)  ...  0.460

Building densities             ... done
Calculating rho(r) on the grid ... done
Building xc-kernel on the grid ... done
                    *** TD-DFT CALCULATION INITIALIZED ***

------------------------
DAVIDSON-DIAGONALIZATION
------------------------

Dimension of the eigenvalue problem            ...   3780
Number of roots to be determined               ...     10
Maximum size of the expansion space            ...    100
Maximum number of iterations                   ...    100
Convergence tolerance for the residual         ...    1.000e-12
Convergence tolerance for the energies         ...    1.000e-12
Orthogonality tolerance                        ...    1.000e-14
Level Shift                                    ...    0.000e+00
Constructing the preconditioner                ... o.k.
Building the initial guess                     ... o.k.
Number of trial vectors determined             ...    100


                       ****Iteration    0****

   Memory handling for direct AO based CIS:
   Memory per vector needed      ...     1 MB
   Memory needed                 ...    51 MB
   Memory available              ...   512 MB
   Number of vectors per batch   ...   295
   Number of batches             ...     1
   Time for densities:            0.027
   Time for RI-J (Direct):        0.355
   Time for K (COSX):             3.969
   Time for XC-Integration:       1.662
   Time for Sigma-Completion:     0.013
   Size of expansion space: 30
   Lowest Energy          :     0.202942470436
   Maximum Energy change  :     0.290173963349 (vector 9)
   Maximum residual norm  :     0.022554431203

                       ****Iteration    1****
   Time for densities:            0.004
   Time for RI-J (Direct):        0.094
   Time for K (COSX):             1.528
   Time for XC-Integration:       0.696
   Time for Sigma-Completion:     0.012
   Size of expansion space: 40
   Lowest Energy          :     0.196389366491
   Maximum Energy change  :     0.019576801686 (vector 1)
   Maximum residual norm  :     0.001294174905

                       ****Iteration    2****
   Time for densities:            0.009
   Time for RI-J (Direct):        0.197
   Time for K (COSX):             1.699
   Time for XC-Integration:       0.695
   Time for Sigma-Completion:     0.009
   Size of expansion space: 50
   Lowest Energy          :     0.196142115018
   Maximum Energy change  :     0.001563159895 (vector 7)
   Maximum residual norm  :     0.000135135419

                       ****Iteration    3****
   Time for densities:            0.009
   Time for RI-J (Direct):        0.186
   Time for K (COSX):             1.703
   Time for XC-Integration:       0.709
   Time for Sigma-Completion:     0.009
   Size of expansion space: 60
   Lowest Energy          :     0.196135375980
   Maximum Energy change  :     0.000199443130 (vector 7)
   Maximum residual norm  :     0.000014996301

                       ****Iteration    4****
   Time for densities:            0.009
   Time for RI-J (Direct):        0.202
   Time for K (COSX):             1.721
   Time for XC-Integration:       0.699
   Time for Sigma-Completion:     0.009
   Size of expansion space: 70
   Lowest Energy          :     0.196135162345
   Maximum Energy change  :     0.000024422861 (vector 7)
   Maximum residual norm  :     0.000002634500

                       ****Iteration    5****
   Time for densities:            0.007
   Time for RI-J (Direct):        0.189
   Time for K (COSX):             1.701
   Time for XC-Integration:       0.689
   Time for Sigma-Completion:     0.009
   Size of expansion space: 80
   Lowest Energy          :     0.196135156142
   Maximum Energy change  :     0.000004295353 (vector 9)
   Maximum residual norm  :     0.000182060085

                       ****Iteration    6****
   Time for densities:            0.009
   Time for RI-J (Direct):        0.195
   Time for K (COSX):             1.685
   Time for XC-Integration:       0.688
   Time for Sigma-Completion:     0.009
   Size of expansion space: 90
   Lowest Energy          :     0.196135155970
   Maximum Energy change  :     0.004890227211 (vector 9)
   Maximum residual norm  :     0.000193342253

                       ****Iteration    7****
   Time for densities:            0.008
   Time for RI-J (Direct):        0.187
   Time for K (COSX):             1.665
   Time for XC-Integration:       0.446
   Time for Sigma-Completion:     0.005
   Size of expansion space: 100
   Lowest Energy          :     0.196135155966
   Maximum Energy change  :     0.000308711142 (vector 9)
   Maximum residual norm  :     0.000013092470
   Rebuilding the expansion space

                       ****Iteration    8****
   Time for densities:            0.009
   Time for RI-J (Direct):        0.133
   Time for K (COSX):             2.649
   Time for XC-Integration:       1.368
   Time for Sigma-Completion:     0.017
   Size of expansion space: 20
   Lowest Energy          :     0.196135193268
   Maximum Energy change  :     0.000016372864 (vector 9)
   Maximum residual norm  :     0.000001303531

                       ****Iteration    9****
   Time for densities:            0.009
   Time for RI-J (Direct):        0.189
   Time for K (COSX):             1.672
   Time for XC-Integration:       0.709
   Time for Sigma-Completion:     0.009
   Size of expansion space: 30
   Lowest Energy          :     0.196135193268
   Maximum Energy change  :     0.000001953549 (vector 9)
   Maximum residual norm  :     0.000000155224

                       ****Iteration   10****
   Time for densities:            0.010
   Time for RI-J (Direct):        0.185
   Time for K (COSX):             1.703
   Time for XC-Integration:       0.730
   Time for Sigma-Completion:     0.009
   Size of expansion space: 40
   Lowest Energy          :     0.196135193268
   Maximum Energy change  :     0.000000200013 (vector 9)
   Maximum residual norm  :     0.000000016731

                       ****Iteration   11****
   Time for densities:            0.008
   Time for RI-J (Direct):        0.182
   Time for K (COSX):             1.631
   Time for XC-Integration:       0.637
   Time for Sigma-Completion:     0.008
   Size of expansion space: 49
   Lowest Energy          :     0.196135193268
   Maximum Energy change  :     0.000000030041 (vector 9)
   Maximum residual norm  :     0.000000003328

                       ****Iteration   12****
   Time for densities:            0.007
   Time for RI-J (Direct):        0.183
   Time for K (COSX):             1.603
   Time for XC-Integration:       0.643
   Time for Sigma-Completion:     0.009
   Size of expansion space: 58
   Lowest Energy          :     0.196135193268
   Maximum Energy change  :     0.000000005386 (vector 9)
   Maximum residual norm  :     0.000000000396

                       ****Iteration   13****
   Time for densities:            0.008
   Time for RI-J (Direct):        0.182
   Time for K (COSX):             1.605
   Time for XC-Integration:       0.625
   Time for Sigma-Completion:     0.008
   Size of expansion space: 67
   Lowest Energy          :     0.196135193268
   Maximum Energy change  :     0.000000000674 (vector 9)
   Maximum residual norm  :     0.000000000071

                       ****Iteration   14****
   Time for densities:            0.006
   Time for RI-J (Direct):        0.175
   Time for K (COSX):             1.524
   Time for XC-Integration:       0.626
   Time for Sigma-Completion:     0.008
   Size of expansion space: 76
   Lowest Energy          :     0.196135193268
   Maximum Energy change  :     0.000000000090 (vector 9)
   Maximum residual norm  :     0.000000000008

                       ****Iteration   15****
   Time for densities:            0.006
   Time for RI-J (Direct):        0.176
   Time for K (COSX):             0.970
   Time for XC-Integration:       0.641
   Time for Sigma-Completion:     0.008
   Size of expansion space: 85
   Lowest Energy          :     0.196135193268
   Maximum Energy change  :     0.000000000010 (vector 9)
   Maximum residual norm  :     0.000000000004

                       ****Iteration   16****
   Time for densities:            0.005
   Time for RI-J (Direct):        0.187
   Time for K (COSX):             1.525
   Time for XC-Integration:       0.644
   Time for Sigma-Completion:     0.008
   Size of expansion space: 94
   Lowest Energy          :     0.196135193268
   Maximum Energy change  :     0.000000000001 (vector 9)
   Maximum residual norm  :     0.000000000003
   Rebuilding the expansion space

                       ****Iteration   17****
   Time for densities:            0.010
   Time for RI-J (Direct):        0.273
   Time for K (COSX):             2.459
   Time for XC-Integration:       1.293
   Time for Sigma-Completion:     0.017
   Size of expansion space: 19
   Lowest Energy          :     0.196135193275
   Maximum Energy change  :     0.000000000803 (vector 9)
   Maximum residual norm  :     0.000000000003

                       ****Iteration   18****
   Time for densities:            0.005
   Time for RI-J (Direct):        0.189
   Time for K (COSX):             1.520
   Time for XC-Integration:       0.596
   Time for Sigma-Completion:     0.008
   Size of expansion space: 28
   Lowest Energy          :     0.196135193275
   Maximum Energy change  :     0.000000000000 (vector 9)

         *** CONVERGENCE OF ENERGIES REACHED ***

[...]
   Time for RI-J (Direct):        0.184
   Time for K (COSX):             1.537
   Time for XC-Integration:       0.676
   Time for Sigma-Completion:     0.007
   Size of expansion space: 70
   Lowest Energy          :     0.157888593483
   Maximum Energy change  :     0.000322988602 (vector 9)
   Maximum residual norm  :     0.000017509788

                       ****Iteration    5****
   Time for densities:            0.005
   Time for RI-J (Direct):        0.170
   Time for K (COSX):             1.557
   Time for XC-Integration:       0.709
   Time for Sigma-Completion:     0.008
   Size of expansion space: 80
   Lowest Energy          :     0.157888583868
   Maximum Energy change  :     0.000025198147 (vector 9)
   Maximum residual norm  :     0.000001234909

                       ****Iteration    6****
   Time for densities:            0.006
   Time for RI-J (Direct):        0.188
   Time for K (COSX):             1.583
   Time for XC-Integration:       0.695
   Time for Sigma-Completion:     0.007
   Size of expansion space: 90
   Lowest Energy          :     0.157888583614
   Maximum Energy change  :     0.000001973072 (vector 9)
   Maximum residual norm  :     0.000000112873

                       ****Iteration    7****
   Time for densities:            0.005
   Time for RI-J (Direct):        0.176
   Time for K (COSX):             1.589
   Time for XC-Integration:       0.658
   Time for Sigma-Completion:     0.008
   Size of expansion space: 100
   Lowest Energy          :     0.157888583608
   Maximum Energy change  :     0.000000160577 (vector 9)
   Maximum residual norm  :     0.000000005762
   Rebuilding the expansion space

                       ****Iteration    8****
   Time for densities:            0.010
   Time for RI-J (Direct):        0.265
   Time for K (COSX):             2.447
   Time for XC-Integration:       1.313
   Time for Sigma-Completion:     0.016
   Size of expansion space: 20
   Lowest Energy          :     0.157888580943
   Maximum Energy change  :     0.000000427116 (vector 4)
   Maximum residual norm  :     0.000000000494

                       ****Iteration    9****
   Time for densities:            0.005
   Time for RI-J (Direct):        0.178
   Time for K (COSX):             1.133
   Time for XC-Integration:       0.692
   Time for Sigma-Completion:     0.008
   Size of expansion space: 30
   Lowest Energy          :     0.157888580943
   Maximum Energy change  :     0.000000000630 (vector 9)
   Maximum residual norm  :     0.000000000065

                       ****Iteration   10****
   Time for densities:            0.005
   Time for RI-J (Direct):        0.207
   Time for K (COSX):             1.497
   Time for XC-Integration:       0.627
   Time for Sigma-Completion:     0.008
   Size of expansion space: 39
   Lowest Energy          :     0.157888580943
   Maximum Energy change  :     0.000000000091 (vector 9)
   Maximum residual norm  :     0.000000000016

                       ****Iteration   11****
   Time for densities:            0.005
   Time for RI-J (Direct):        0.178
   Time for K (COSX):             1.477
   Time for XC-Integration:       0.646
   Time for Sigma-Completion:     0.008
   Size of expansion space: 48
   Lowest Energy          :     0.157888580943
   Maximum Energy change  :     0.000000000027 (vector 9)
   Maximum residual norm  :     0.000000000006

                       ****Iteration   12****
   Time for densities:            0.005
   Time for RI-J (Direct):        0.195
   Time for K (COSX):             1.543
   Time for XC-Integration:       0.623
   Time for Sigma-Completion:     0.008
   Size of expansion space: 57
   Lowest Energy          :     0.157888580943
   Maximum Energy change  :     0.000000000008 (vector 9)
   Maximum residual norm  :     0.000000000004

                       ****Iteration   13****
   Time for densities:            0.004
   Time for RI-J (Direct):        0.173
   Time for K (COSX):             1.486
   Time for XC-Integration:       0.624
   Time for Sigma-Completion:     0.008
   Size of expansion space: 66
   Lowest Energy          :     0.157888580943
   Maximum Energy change  :     0.000000000003 (vector 9)
   Maximum residual norm  :     0.000000000003

                       ****Iteration   14****
   Time for densities:            0.005
   Time for RI-J (Direct):        0.184
   Time for K (COSX):             1.524
   Time for XC-Integration:       0.612
   Time for Sigma-Completion:     0.008
   Size of expansion space: 75
   Lowest Energy          :     0.157888580943
   Maximum Energy change  :     0.000000000001 (vector 9)
   Maximum residual norm  :     0.000000000003

                       ****Iteration   15****
   Time for densities:            0.005
   Time for RI-J (Direct):        0.175
   Time for K (COSX):             1.454
   Time for XC-Integration:       0.390
   Time for Sigma-Completion:     0.004
   Size of expansion space: 84
   Lowest Energy          :     0.157888580943
   Maximum Energy change  :     0.000000000001 (vector 9)

         *** CONVERGENCE OF ENERGIES REACHED ***

Storing the converged CI vectors               ... xanthine_opt_followiroot_9.cis1

                 *** DAVIDSON DONE ***

Total time for solving the CIS problem:    43.377sec

------------------------------------
TD-DFT/TDA EXCITED STATES (SINGLETS)
------------------------------------

the weight of the individual excitations are printed if larger than 1.0e-02

STATE  1:  E=   0.157889 au      4.296 eV    34652.5 cm**-1 <S**2> =   0.000000
    35a ->  39a  :     0.036181 (c= -0.19021335)
    37a ->  39a  :     0.865005 (c=  0.93005643)
    37a ->  41a  :     0.065523 (c= -0.25597414)
    37a ->  46a  :     0.018372 (c= -0.13554506)

STATE  2:  E=   0.189573 au      5.159 eV    41606.4 cm**-1 <S**2> =   0.000000
    34a ->  40a  :     0.020793 (c=  0.14419724)
    36a ->  39a  :     0.048707 (c= -0.22069723)
    36a ->  41a  :     0.011651 (c=  0.10793964)
    38a ->  39a  :     0.867729 (c=  0.93151989)

STATE  3:  E=   0.229132 au      6.235 eV    50288.7 cm**-1 <S**2> =   0.000000
    33a ->  39a  :     0.701516 (c= -0.83756568)
    33a ->  41a  :     0.025628 (c= -0.16008868)
    35a ->  39a  :     0.042169 (c= -0.20534998)
    36a ->  39a  :     0.159635 (c=  0.39954324)
    37a ->  41a  :     0.024045 (c=  0.15506359)

STATE  4:  E=   0.231258 au      6.293 eV    50755.4 cm**-1 <S**2> =   0.000000
    33a ->  39a  :     0.173698 (c=  0.41677111)
    34a ->  39a  :     0.030878 (c=  0.17572067)
    36a ->  39a  :     0.637571 (c=  0.79848064)
    38a ->  39a  :     0.035441 (c=  0.18825658)
    38a ->  40a  :     0.015131 (c= -0.12300877)
    38a ->  41a  :     0.029731 (c=  0.17242818)

STATE  5:  E=   0.235989 au      6.422 eV    51793.7 cm**-1 <S**2> =   0.000000
    32a ->  39a  :     0.011334 (c= -0.10646199)
    34a ->  39a  :     0.482827 (c=  0.69485721)
    36a ->  39a  :     0.071809 (c= -0.26797120)
    38a ->  40a  :     0.327020 (c= -0.57185639)
    38a ->  41a  :     0.060052 (c=  0.24505453)

STATE  6:  E=   0.240439 au      6.543 eV    52770.2 cm**-1 <S**2> =   0.000000
    33a ->  39a  :     0.014143 (c= -0.11892505)
    35a ->  40a  :     0.451589 (c= -0.67200350)
    35a ->  41a  :     0.132512 (c= -0.36402200)
    35a ->  46a  :     0.033778 (c=  0.18378910)
    37a ->  40a  :     0.263008 (c= -0.51284330)
    37a ->  41a  :     0.075105 (c= -0.27405311)

STATE  7:  E=   0.246789 au      6.715 eV    54163.8 cm**-1 <S**2> =   0.000000
    33a ->  39a  :     0.021979 (c=  0.14825293)
    35a ->  39a  :     0.839636 (c= -0.91631654)
    35a ->  40a  :     0.010313 (c= -0.10155073)
    35a ->  41a  :     0.019407 (c=  0.13931071)
    37a ->  39a  :     0.055374 (c= -0.23531584)
    37a ->  40a  :     0.012668 (c= -0.11255061)
    37a ->  41a  :     0.011260 (c= -0.10611259)

STATE  8:  E=   0.262522 au      7.144 eV    57617.0 cm**-1 <S**2> =   0.000000
    32a ->  42a  :     0.016386 (c=  0.12800703)
    38a ->  41a  :     0.048597 (c=  0.22044723)
    38a ->  42a  :     0.889446 (c= -0.94310450)
    38a ->  44a  :     0.012347 (c=  0.11111543)

STATE  9:  E=   0.263360 au      7.166 eV    57800.8 cm**-1 <S**2> =   0.000000
    34a ->  39a  :     0.264104 (c=  0.51391073)
    36a ->  40a  :     0.011238 (c=  0.10600861)
    37a ->  42a  :     0.018177 (c= -0.13482257)
    38a ->  39a  :     0.010961 (c= -0.10469368)
    38a ->  40a  :     0.559385 (c=  0.74792027)
    38a ->  41a  :     0.051020 (c=  0.22587617)
    38a ->  42a  :     0.022533 (c=  0.15010860)

STATE 10:  E=   0.267127 au      7.269 eV    58627.6 cm**-1 <S**2> =   0.000000
    34a ->  39a  :     0.156228 (c=  0.39525699)
    38a ->  41a  :     0.716387 (c= -0.84639638)
    38a ->  42a  :     0.036678 (c= -0.19151628)


-----------------------------
TD-DFT/TDA-EXCITATION SPECTRA
-----------------------------

Center of mass = ( -3.6916, -2.3843, -0.1358)
Calculating the Dipole integrals                  ... done
Transforming integrals                            ... done
Calculating the Linear Momentum integrals         ... done
Transforming integrals                            ... done
Calculating angular momentum integrals            ... done
Transforming integrals                            ... done

-----------------------------------------------------------------------------
         ABSORPTION SPECTRUM VIA TRANSITION ELECTRIC DIPOLE MOMENTS
-----------------------------------------------------------------------------
State   Energy    Wavelength  fosc         T2        TX        TY        TZ  
        (cm-1)      (nm)                 (au**2)    (au)      (au)      (au) 
-----------------------------------------------------------------------------
   1   34652.5    288.6   0.000211576   0.00201  -0.02064   0.01957  -0.03466
   2   41606.4    240.3   0.245543470   1.94287  -0.65880   1.22454  -0.09669
   3   50288.7    198.9   0.015611372   0.10220  -0.05415  -0.29454   0.11185
   4   50755.4    197.0   0.077132576   0.50030   0.10890   0.69871  -0.01576
   5   51793.7    193.1   0.015696840   0.09977   0.21864  -0.22662   0.02479
   6   52770.2    189.5   0.000196953   0.00123  -0.03193   0.01374   0.00452
   7   54163.8    184.6   0.000915980   0.00557  -0.02781   0.06826  -0.01162
   8   57617.0    173.6   0.006777691   0.03873  -0.16877   0.06512  -0.07748
   9   57800.8    173.0   0.582407152   3.31718   1.80894  -0.21191   0.00382
  10   58627.6    170.6   0.127430468   0.71556  -0.75033  -0.39060   0.00062

-----------------------------------------------------------------------------
         ABSORPTION SPECTRUM VIA TRANSITION VELOCITY DIPOLE MOMENTS
-----------------------------------------------------------------------------
State   Energy    Wavelength   fosc        P2         PX        PY        PZ  
        (cm-1)      (nm)                 (au**2)     (au)      (au)      (au) 
-----------------------------------------------------------------------------
   1   34652.5    288.6   0.000448997   0.00011  -0.00120   0.00117  -0.01017
   2   41606.4    240.3   0.021709848   0.00617   0.02494   0.07432  -0.00522
   3   50288.7    198.9   0.000195975   0.00007  -0.00480  -0.00186   0.00639
   4   50755.4    197.0   0.000392031   0.00014   0.01050   0.00477   0.00176
   5   51793.7    193.1   0.002937675   0.00104  -0.01970   0.02550  -0.00130
   6   52770.2    189.5   0.000024507   0.00001   0.00184   0.00011  -0.00233
   7   54163.8    184.6   0.000021816   0.00001   0.00250  -0.00017   0.00134
   8   57617.0    173.6   0.010491834   0.00413   0.01582   0.00011   0.06230
   9   57800.8    173.0   0.066799248   0.02639  -0.15938   0.02991   0.00963
  10   58627.6    170.6   0.005403505   0.00217   0.04619   0.00451   0.00340

-------------------------------------------------------------------
                             CD SPECTRUM
-------------------------------------------------------------------
State  Energy     Wavelength     R         MX        MY        MZ   
       (cm-1)       (nm)     (1e40*cgs)   (au)      (au)      (au)  
-------------------------------------------------------------------
   1   34652.5    288.6      3.94881  -0.01114   0.34815  -0.03846
   2   41606.4    240.3     -7.67866   0.00686   0.02991   0.50052
   3   50288.7    198.9      6.14083  -0.12459   0.00719   0.07507
   4   50755.4    197.0     -5.38534  -0.04908  -0.01229  -0.15922
   5   51793.7    193.1     -1.41830  -0.01485  -0.00935  -0.07587
   6   52770.2    189.5      4.94030  -0.38895  -0.15433   0.04015
   7   54163.8    184.6      0.81361  -0.10281  -0.01738  -0.00454
   8   57617.0    173.6     19.36635  -0.10841   0.23227  -0.09883
   9   57800.8    173.0    -29.02822  -0.02711   0.06690   0.42990
  10   58627.6    170.6     -1.76837  -0.00704   0.02304  -0.05877

-------------------------------------------------------------------
         CD SPECTRUM VIA TRANSITION VELOCITY DIPOLE MOMENTS        
-------------------------------------------------------------------
State  Energy     Wavelength     R         MX        MY        MZ   
       (cm-1)       (nm)     (1e40*cgs)   (au)      (au)      (au)  
-------------------------------------------------------------------
   1   34652.5    288.6      2.42878  -0.01114   0.34815  -0.03846
   2   41606.4    240.3     -0.54072   0.00686   0.02991   0.50052
   3   50288.7    198.9      2.18959  -0.12459   0.00719   0.07507
   4   50755.4    197.0     -1.74000  -0.04908  -0.01229  -0.15922
   5   51793.7    193.1      0.30522  -0.01485  -0.00935  -0.07587
   6   52770.2    189.5     -1.62293  -0.38895  -0.15433   0.04015
   7   54163.8    184.6     -0.49685  -0.10281  -0.01738  -0.00454
   8   57617.0    173.6    -14.08956  -0.10841   0.23227  -0.09883
   9   57800.8    173.0     18.72863  -0.02711   0.06690   0.42990
  10   58627.6    170.6     -0.74354  -0.00704   0.02304  -0.05877

Total run time:       44.130 sec

           *** ORCA-CIS/TD-DFT FINISHED WITHOUT ERROR ***

Maximum memory used throughout the entire CIS-calculation: 74.1 MB

Calculating overlaps between states              ...done
The IROOT now is                                  ...1

-----------------------
CIS/TD-DFT TOTAL ENERGY
-----------------------

    E(SCF)  =   -562.227587801 Eh
    DE(CIS) =      0.157888581 Eh (Root  1)
    ----------------------------- ---------
    E(tot)  =   -562.069699220 Eh


-------------------------   --------------------
FINAL SINGLE POINT ENERGY      -562.069699220229
-------------------------   --------------------

                                *** OPTIMIZATION RUN DONE ***

                            ***************************************
                            *     ORCA property calculations      *
                            ***************************************

                                    ---------------------
                                    Active property flags
                                    ---------------------
   (+) Dipole Moment


------------------------------------------------------------------------------
                       ORCA ELECTRIC PROPERTIES CALCULATION
------------------------------------------------------------------------------

Dipole Moment Calculation                       ... on
Quadrupole Moment Calculation                   ... off
Polarizability Calculation                      ... off
GBWName                                         ... xanthine_opt_followiroot_9.gbw
Electron density                                ... xanthine_opt_followiroot_9.scfp
The origin for moment calculation is the CENTER OF MASS  = (-3.691592, -2.384299 -0.135830)

-------------
DIPOLE MOMENT
-------------
                                X             Y             Z
Electronic contribution:     -1.19190      -0.04691       0.00560
Nuclear contribution   :      3.00714      -0.28634       0.09990
                        -----------------------------------------
Total Dipole Moment    :      1.81524      -0.33325       0.10550
                        -----------------------------------------
Magnitude (a.u.)       :      1.84859
Magnitude (Debye)      :      4.69875



--------------------
Rotational spectrum 
--------------------
 
Rotational constants in cm-1:     0.064027     0.036864     0.023399 
Rotational constants in MHz :  1919.473639  1105.163746   701.471136 

 Dipole components along the rotational axes: 
x,y,z [a.u.] :     1.803014    -0.399417     0.083086 
x,y,z [Debye]:     4.582896    -1.015237     0.211187 

 

                        *** CIS RELAXED DENSITY ***

------------------------------------------------------------------------------
                       ORCA ELECTRIC PROPERTIES CALCULATION
------------------------------------------------------------------------------

Dipole Moment Calculation                       ... on
Quadrupole Moment Calculation                   ... off
Polarizability Calculation                      ... off
GBWName                                         ... xanthine_opt_followiroot_9.gbw
Electron density                                ... xanthine_opt_followiroot_9.cisp
The origin for moment calculation is the CENTER OF MASS  = (-3.691592, -2.384299 -0.135830)

-------------
DIPOLE MOMENT
-------------
                                X             Y             Z
Electronic contribution:     -1.87863       1.13409      -0.12589
Nuclear contribution   :      3.00714      -0.28634       0.09990
                        -----------------------------------------
Total Dipole Moment    :      1.12851       0.84775      -0.02600
                        -----------------------------------------
Magnitude (a.u.)       :      1.41170
Magnitude (Debye)      :      3.58825



--------------------
Rotational spectrum 
--------------------
 
Rotational constants in cm-1:     0.064027     0.036864     0.023399 
Rotational constants in MHz :  1919.473639  1105.163746   701.471136 

 Dipole components along the rotational axes: 
x,y,z [a.u.] :     1.155004     0.810031     0.052013 
x,y,z [Debye]:     2.935788     2.058935     0.132206 

 

----------------------------------------------------------------------------
                           ORCA NUMERICAL FREQUENCIES
                              (16-process run)
----------------------------------------------------------------------------

Number of atoms                ... 15
Central differences            ... used
Number of displacements        ... 90
Numerical increment            ... 5.000e-03 bohr
IR-spectrum generation         ... on
Raman-spectrum generation      ... off
Surface Crossing Hessian       ... off

The output will be reduced. Please look at the following files:
SCF program output             ... >xanthine_opt_followiroot_9.lastscf
Integral program output        ... >xanthine_opt_followiroot_9.lastint
Gradient program output        ... >xanthine_opt_followiroot_9.lastgrad
Dipole moment program output   ... >xanthine_opt_followiroot_9.lastmom
AutoCI program output          ... >xanthine_opt_followiroot_9.lastautoci

Filesystem                                  Size  Used Avail Use% Mounted on
devtmpfs                                    252G     0  252G   0% /dev
tmpfs                                       252G  4.7M  252G   1% /dev/shm
tmpfs                                       252G  2.0G  250G   1% /run
tmpfs                                       252G     0  252G   0% /sys/fs/cgroup
/dev/mapper/rl_cccuam-root                   46G   15G   29G  33% /
/dev/mapper/rl_cccuam-var                    19G  897M   17G   6% /var
/dev/nvme0n1p2                              1.8G  277M  1.5G  16% /boot
/dev/mapper/rl_cccuam-tmp                   9.1G  8.5M  8.6G   1% /tmp
/dev/mapper/rl_cccuam-temporal              1.7T  481G  1.1T  31% /temporal
/dev/nvme0n1p1                              952M  5.8M  946M   1% /boot/efi
192.168.5.2@o2ib:192.168.5.3@o2ib:/LUSTREB  923T  352T  525T  41% /lustre
