panoramix.ccc.uam.es
/temporal/fmatar/slurm_tmp_6276540

                                 *****************
                                 * O   R   C   A *
                                 *****************

                                            #,                                       
                                            ###                                      
                                            ####                                     
                                            #####                                    
                                            ######                                   
                                           ########,                                 
                                     ,,################,,,,,                         
                               ,,#################################,,                 
                          ,,##########################################,,             
                       ,#########################################, ''#####,          
                    ,#############################################,,   '####,        
                  ,##################################################,,,,####,       
                ,###########''''           ''''###############################       
              ,#####''   ,,,,##########,,,,          '''####'''          '####       
            ,##' ,,,,###########################,,,                        '##       
           ' ,,###''''                  '''############,,,                           
         ,,##''                                '''############,,,,        ,,,,,,###''
      ,#''                                            '''#######################'''  
     '                                                          ''''####''''         
             ,#######,   #######,   ,#######,      ##                                
            ,#'     '#,  ##    ##  ,#'     '#,    #''#        ######   ,####,        
            ##       ##  ##   ,#'  ##            #'  '#       #        #'  '#        
            ##       ##  #######   ##           ,######,      #####,   #    #        
            '#,     ,#'  ##    ##  '#,     ,#' ,#      #,         ##   #,  ,#        
             '#######'   ##     ##  '#######'  #'      '#     #####' # '####'        



                  #######################################################
                  #                        -***-                        #
                  #          Department of theory and spectroscopy      #
                  #    Directorship and core code : Frank Neese         #
                  #        Max Planck Institute fuer Kohlenforschung    #
                  #                Kaiser Wilhelm Platz 1               #
                  #                 D-45470 Muelheim/Ruhr               #
                  #                      Germany                        #
                  #                                                     #
                  #                  All rights reserved                #
                  #                        -***-                        #
                  #######################################################


                         Program Version 5.0.3 -  RELEASE  -


 With contributions from (in alphabetic order):
   Daniel Aravena         : Magnetic Suceptibility
   Michael Atanasov       : Ab Initio Ligand Field Theory (pilot matlab implementation)
   Alexander A. Auer      : GIAO ZORA, VPT2 properties, NMR spectrum
   Ute Becker             : Parallelization
   Giovanni Bistoni       : ED, misc. LED, open-shell LED, HFLD
   Martin Brehm           : Molecular dynamics
   Dmytro Bykov           : SCF Hessian
   Vijay G. Chilkuri      : MRCI spin determinant printing, contributions to CSF-ICE
   Dipayan Datta          : RHF DLPNO-CCSD density
   Achintya Kumar Dutta   : EOM-CC, STEOM-CC
   Dmitry Ganyushin       : Spin-Orbit,Spin-Spin,Magnetic field MRCI
   Miquel Garcia          : C-PCM and meta-GGA Hessian, CC/C-PCM, Gaussian charge scheme
   Yang Guo               : DLPNO-NEVPT2, F12-NEVPT2, CIM, IAO-localization
   Andreas Hansen         : Spin unrestricted coupled pair/coupled cluster methods
   Benjamin Helmich-Paris : MC-RPA, TRAH-SCF, COSX integrals
   Lee Huntington         : MR-EOM, pCC
   Robert Izsak           : Overlap fitted RIJCOSX, COSX-SCS-MP3, EOM
   Marcus Kettner         : VPT2
   Christian Kollmar      : KDIIS, OOCD, Brueckner-CCSD(T), CCSD density, CASPT2, CASPT2-K
   Simone Kossmann        : Meta GGA functionals, TD-DFT gradient, OOMP2, MP2 Hessian
   Martin Krupicka        : Initial AUTO-CI
   Lucas Lang             : DCDCAS
   Marvin Lechner         : AUTO-CI (C++ implementation), FIC-MRCC
   Dagmar Lenk            : GEPOL surface, SMD
   Dimitrios Liakos       : Extrapolation schemes; Compound Job, initial MDCI parallelization
   Dimitrios Manganas     : Further ROCIS development; embedding schemes
   Dimitrios Pantazis     : SARC Basis sets
   Anastasios Papadopoulos: AUTO-CI, single reference methods and gradients
   Taras Petrenko         : DFT Hessian,TD-DFT gradient, ASA, ECA, R-Raman, ABS, FL, XAS/XES, NRVS
   Peter Pinski           : DLPNO-MP2, DLPNO-MP2 Gradient
   Christoph Reimann      : Effective Core Potentials
   Marius Retegan         : Local ZFS, SOC
   Christoph Riplinger    : Optimizer, TS searches, QM/MM, DLPNO-CCSD(T), (RO)-DLPNO pert. Triples
   Tobias Risthaus        : Range-separated hybrids, TD-DFT gradient, RPA, STAB
   Michael Roemelt        : Original ROCIS implementation
   Masaaki Saitow         : Open-shell DLPNO-CCSD energy and density
   Barbara Sandhoefer     : DKH picture change effects
   Avijit Sen             : IP-ROCIS
   Kantharuban Sivalingam : CASSCF convergence, NEVPT2, FIC-MRCI
   Bernardo de Souza      : ESD, SOC TD-DFT
   Georgi Stoychev        : AutoAux, RI-MP2 NMR, DLPNO-MP2 response
   Willem Van den Heuvel  : Paramagnetic NMR
   Boris Wezisla          : Elementary symmetry handling
   Frank Wennmohs         : Technical directorship


 We gratefully acknowledge several colleagues who have allowed us to
 interface, adapt or use parts of their codes:
   Stefan Grimme, W. Hujo, H. Kruse, P. Pracht,  : VdW corrections, initial TS optimization,
                  C. Bannwarth, S. Ehlert          DFT functionals, gCP, sTDA/sTD-DF
   Ed Valeev, F. Pavosevic, A. Kumar             : LibInt (2-el integral package), F12 methods
   Garnet Chan, S. Sharma, J. Yang, R. Olivares  : DMRG
   Ulf Ekstrom                                   : XCFun DFT Library
   Mihaly Kallay                                 : mrcc  (arbitrary order and MRCC methods)
   Jiri Pittner, Ondrej Demel                    : Mk-CCSD
   Frank Weinhold                                : gennbo (NPA and NBO analysis)
   Christopher J. Cramer and Donald G. Truhlar   : smd solvation model
   Lars Goerigk                                  : TD-DFT with DH, B97 family of functionals
   V. Asgeirsson, H. Jonsson                     : NEB implementation
   FAccTs GmbH                                   : IRC, NEB, NEB-TS, DLPNO-Multilevel, CI-OPT
                                                   MM, QMMM, 2- and 3-layer-ONIOM, Crystal-QMMM,
                                                   LR-CPCM, SF, NACMEs, symmetry and pop. for TD-DFT,
                                                   nearIR, NL-DFT gradient (VV10), updates on ESD,
                                                   ML-optimized integration grids
   S Lehtola, MJT Oliveira, MAL Marques          : LibXC Library
   Liviu Ungur et al                             : ANISO software


 Your calculation uses the libint2 library for the computation of 2-el integrals
 For citations please refer to: http://libint.valeyev.net

 Your ORCA version has been built with support for libXC version: 5.1.0
 For citations please refer to: https://tddft.org/programs/libxc/

 This ORCA versions uses:
   CBLAS   interface :  Fast vector & matrix operations
   LAPACKE interface :  Fast linear algebra routines
   SCALAPACK package :  Parallel linear algebra routines
   Shared memory     :  Shared parallel matrices
   BLAS/LAPACK       :  OpenBLAS 0.3.15  USE64BITINT DYNAMIC_ARCH NO_AFFINITY Sandybridge SINGLE_THREADED
        Core in use  :  Sandybridge
   Copyright (c) 2011-2014, The OpenBLAS Project


Your calculation utilizes the atom-pairwise dispersion correction
with the zero-damping scheme (D30)
Cite in your paper:
S.Grimme, J.Antony, S.Ehrlich and H.Krieg, J.Chem.Phys., 132, (2010), 154104 
   

XCFun DFT library Copyright 2009-2010 Ulf Ekstrom and contributors.
See http://admol.org/xcfun for more information.
This is free software; see the source code for copying conditions.
There is ABSOLUTELY NO WARRANTY; not even for MERCHANTABILITY or FITNESS FOR A PARTICULAR PURPOSE.
For details see the documentation.
Scientific users of this library should cite U. Ekstrom, L. Visscher, R. Bast, A. J. Thorvaldsen and K. Ruud;
J.Chem.Theor.Comp. 2010, DOI: 10.1021/ct100117s
XCFun Version 0.99 

================================================================================

----- Orbital basis set information -----
Your calculation utilizes the basis: cc-pVDZ 
       H, B-Ne : Obtained from the ccRepo (grant-hill.group.shef.ac.uk/ccrepo) Feb. 2017
                 T. H. Dunning, Jr., J. Chem. Phys. 90, 1007 (1989)
            He : Obtained from the ccRepo (grant-hill.group.shef.ac.uk/ccrepo) Feb. 2017
                 D. E. Woon, T. H. Dunning, Jr., J. Chem. Phys. 100, 2975 (1994)
  Li-Be, Na-Mg : Obtained from the ccRepo (grant-hill.group.shef.ac.uk/ccrepo) Feb. 2017
                 B. P. Prascher, D. E. Woon, K. A. Peterson, T. H. Dunning, Jr., A. K. Wilson, Theor. Chem. Acc. 128, 69 (2011)
         Al-Ar : Obtained from the ccRepo (grant-hill.group.shef.ac.uk/ccrepo) Feb. 2017
                 D. E. Woon, T. H. Dunning, Jr., J. Chem. Phys. 98, 1358 (1993)
            Ca : Obtained from the Peterson Research Group Website (tyr0.chem.wsu.edu/~kipeters) Feb. 2017
                 J. Koput, K. A. Peterson, J. Phys. Chem. 106, 9595 (2002)
         Sc-Zn : Obtained from the ccRepo (grant-hill.group.shef.ac.uk/ccrepo) Feb. 2017
                 N. B. Balabanov, K. A. Peterson, J. Chem. Phys. 123, 064107 (2005)
                 N. B. Balabanov, K. A. Peterson, J. Chem. Phys. 125, 074110 (2006)
         Ga-Kr : Obtained from the ccRepo (grant-hill.group.shef.ac.uk/ccrepo) Feb. 2017
                 A. K. Wilson, D. E. Woon, K. A. Peterson, T. H. Dunning, Jr., J. Chem. Phys. 110, 7667 (1999)

----- AuxJ basis set information -----
Your calculation utilizes the auxiliary basis: def2/J
   F. Weigend, Phys. Chem. Chem. Phys. 8, 1057 (2006).

================================================================================
                                        WARNINGS
                       Please study these warnings very carefully!
================================================================================

INFO   : Checking CIS options ...

WARNING: Geometry Optimization
  ===> : Switching off AutoStart
         For restart on a previous wavefunction, please use MOREAD

WARNING: CIS/ROCIS methods need fully converged wavefunctions
  ===> : Setting SCFConvForced true
         You can overwrite this default with %scf ConvForced false 


INFO   : the flag for use of the SHARK integral package has been found!

================================================================================
                                       INPUT FILE
================================================================================
NAME = wasabidienone_opt_iroot_0.in
|  1> ! wB97x-D3 cc-pvdz opt 
|  2> 
|  3> %tddft
|  4>  nroots 10
|  5>  tda TRUE
|  6>  IRoot 0
|  7> end
|  8> 
|  9> *xyz 0 1 
| 10>  C     0.561296    -0.123943     0.728396
| 11>  C     0.472747     1.052933    -0.263112
| 12>  C    -0.690813     1.126476    -1.140673
| 13>  C    -0.774030     2.354094    -2.012884
| 14>  C    -1.482640     0.010489    -1.239654
| 15>  O    -2.590184    -0.099001    -2.004851
| 16>  C    -1.201081    -1.255671    -0.579816
| 17>  H    -1.822853    -2.112983    -0.832311
| 18>  C    -0.182765    -1.354836     0.286300
| 19>  O     0.140358    -2.505269     0.900894
| 20>  C    -0.024740     0.372650     2.055413
| 21>  H     0.551809     1.247195     2.385196
| 22>  H     0.033460    -0.415776     2.818998
| 23>  H    -1.076287     0.658293     1.917007
| 24>  O     1.340382     1.910186    -0.199973
| 25>  O     1.927279    -0.442365     1.024140
| 26>  H     0.187426     2.877525    -1.939693
| 27>  H    -1.555823     3.063901    -1.701717
| 28>  H    -0.942663     2.094917    -3.067908
| 29>  C    -3.440351     1.021878    -2.201430
| 30>  H    -4.433884     0.606754    -2.412778
| 31>  H    -3.123898     1.642738    -3.050608
| 32>  H    -3.488704     1.638579    -1.290928
| 33>  H     0.969455    -2.354032     1.378266
| 34>  C     2.725820    -0.683768    -0.059181
| 35>  O     2.276758    -0.885488    -1.156221
| 36>  C     4.183987    -0.628169     0.327480
| 37>  H     4.267914    -1.100665     1.321711
| 38>  C     4.565894     0.854391     0.466481
| 39>  C     5.037558    -1.393764    -0.686513
| 40>  H     4.622823    -2.408717    -0.802464
| 41>  C     6.509918    -1.482743    -0.298744
| 42>  H     4.927066    -0.914144    -1.672624
| 43>  H     6.636298    -1.941408     0.695771
| 44>  H     6.990608    -0.493014    -0.271134
| 45>  H     7.068842    -2.097022    -1.019823
| 46>  H     3.864806     1.376730     1.130693
| 47>  H     4.523955     1.352827    -0.514037
| 48>  H     5.581627     0.959171     0.872700
| 49> *
| 50> 
| 51>                          ****END OF INPUT****
================================================================================

                       *****************************
                       * Geometry Optimization Run *
                       *****************************

Geometry optimization settings:
Update method            Update   .... BFGS
Choice of coordinates    CoordSys .... Z-matrix Internals
Initial Hessian          InHess   .... Almoef's Model

Convergence Tolerances:
Energy Change            TolE     ....  5.0000e-06 Eh
Max. Gradient            TolMAXG  ....  3.0000e-04 Eh/bohr
RMS Gradient             TolRMSG  ....  1.0000e-04 Eh/bohr
Max. Displacement        TolMAXD  ....  4.0000e-03 bohr
RMS Displacement         TolRMSD  ....  2.0000e-03 bohr
Strict Convergence                ....  False
------------------------------------------------------------------------------
                        ORCA OPTIMIZATION COORDINATE SETUP
------------------------------------------------------------------------------

The optimization will be done in new redundant internal coordinates
Making redundant internal coordinates   ...  (new redundants) done
Evaluating the initial hessian          ...  (Almloef) done
Evaluating the coordinates              ...  done
Calculating the B-matrix                .... done
Calculating the G-matrix                .... done
Diagonalizing the G-matrix              .... done
Small eigenvalue found = 2.906e-03
Small eigenvalue found = 6.310e-03
Small eigenvalue found = 1.448e-02
Small eigenvalue found = 1.693e-02
Small eigenvalue found = 2.439e-02
The first mode is                       ....   85
The number of degrees of freedom        ....  111

    -----------------------------------------------------------------
                    Redundant Internal Coordinates


    -----------------------------------------------------------------
         Definition                    Initial Value    Approx d2E/dq
    -----------------------------------------------------------------
      1. B(C   1,C   0)                  1.5414         0.358230   
      2. B(C   2,C   1)                  1.4592         0.484467   
      3. B(C   3,C   2)                  1.5082         0.404696   
      4. B(C   4,C   2)                  1.3719         0.667660   
      5. B(O   5,C   4)                  1.3506         0.646707   
      6. B(C   6,C   4)                  1.4553         0.491584   
      7. B(H   7,C   6)                  1.0887         0.361781   
      8. B(C   8,C   6)                  1.3405         0.749380   
      9. B(C   8,C   0)                  1.5047         0.409935   
     10. B(O   9,C   8)                  1.3437         0.663261   
     11. B(C  10,C   0)                  1.5333         0.369070   
     12. B(H  11,C  10)                  1.0982         0.349443   
     13. B(H  12,C  10)                  1.0991         0.348235   
     14. B(H  13,C  10)                  1.0984         0.349148   
     15. B(O  14,C   1)                  1.2213         1.039847   
     16. B(O  15,C   0)                  1.4334         0.477046   
     17. B(H  16,C   3)                  1.0971         0.350767   
     18. B(H  17,C   3)                  1.1008         0.346040   
     19. B(H  18,C   3)                  1.0994         0.347874   
     20. B(C  19,O   5)                  1.4205         0.500297   
     21. B(H  20,C  19)                  1.0973         0.350550   
     22. B(H  21,C  19)                  1.0985         0.349023   
     23. B(H  22,C  19)                  1.1008         0.346144   
     24. B(H  23,O   9)                  0.9686         0.503812   
     25. B(C  24,O  15)                  1.3673         0.608249   
     26. B(O  25,C  24)                  1.2024         1.114621   
     27. B(C  26,C  24)                  1.5096         0.402668   
     28. B(H  27,C  26)                  1.1040         0.342062   
     29. B(C  28,C  26)                  1.5373         0.363747   
     30. B(C  29,C  26)                  1.5307         0.372679   
     31. B(H  30,C  29)                  1.1025         0.343896   
     32. B(C  31,C  29)                  1.5252         0.380270   
     33. B(H  32,C  29)                  1.1021         0.344424   
     34. B(H  33,C  31)                  1.1025         0.343996   
     35. B(H  34,C  31)                  1.1006         0.346308   
     36. B(H  35,C  31)                  1.0999         0.347291   
     37. B(H  36,C  28)                  1.0980         0.349708   
     38. B(H  37,C  28)                  1.1007         0.346178   
     39. B(H  38,C  28)                  1.0990         0.348444   
     40. A(C   8,C   0,C  10)          109.2820         0.368412   
     41. A(C   1,C   0,C  10)          106.7066         0.360014   
     42. A(C   1,C   0,C   8)          114.0270         0.366533   
     43. A(C   1,C   0,O  15)          110.9196         0.373859   
     44. A(C   8,C   0,O  15)          110.4945         0.382685   
     45. A(C  10,C   0,O  15)          104.9278         0.375787   
     46. A(C   0,C   1,O  14)          117.5058         0.428800   
     47. A(C   2,C   1,O  14)          124.2058         0.452829   
     48. A(C   0,C   1,C   2)          118.1070         0.377227   
     49. A(C   3,C   2,C   4)          126.0529         0.407603   
     50. A(C   1,C   2,C   3)          115.6453         0.385294   
     51. A(C   1,C   2,C   4)          117.5552         0.420845   
     52. A(C   2,C   3,H  16)          107.5413         0.327199   
     53. A(H  16,C   3,H  18)          108.1136         0.288081   
     54. A(C   2,C   3,H  18)          111.8107         0.326753   
     55. A(H  17,C   3,H  18)          108.3201         0.287470   
     56. A(H  16,C   3,H  17)          107.2098         0.287843   
     57. A(C   2,C   3,H  17)          113.6122         0.326469   
     58. A(C   2,C   4,O   5)          125.4579         0.440349   
     59. A(C   2,C   4,C   6)          124.2880         0.421942   
     60. A(O   5,C   4,C   6)          110.1821         0.416828   
     61. A(C   4,O   5,C  19)          120.3463         0.415426   
     62. A(H   7,C   6,C   8)          121.6969         0.364767   
     63. A(C   4,C   6,C   8)          120.2842         0.430758   
     64. A(C   4,C   6,H   7)          117.9996         0.339668   
     65. A(C   6,C   8,O   9)          122.7872         0.451722   
     66. A(C   0,C   8,O   9)          116.5551         0.405429   
     67. A(C   0,C   8,C   6)          120.3283         0.416993   
     68. A(C   8,O   9,H  23)          107.3121         0.372410   
     69. A(C   0,C  10,H  11)          108.4911         0.322083   
     70. A(H  12,C  10,H  13)          108.9519         0.287919   
     71. A(H  11,C  10,H  13)          109.4723         0.288075   
     72. A(C   0,C  10,H  13)          109.9420         0.322039   
     73. A(H  11,C  10,H  12)          109.5618         0.287957   
     74. A(C   0,C  10,H  12)          110.4077         0.321901   
     75. A(C   0,O  15,C  24)          115.6131         0.407479   
     76. A(H  21,C  19,H  22)          109.5985         0.287632   
     77. A(H  20,C  19,H  22)          109.3592         0.287828   
     78. A(O   5,C  19,H  22)          110.7262         0.336112   
     79. A(H  20,C  19,H  21)          109.0114         0.288202   
     80. A(O   5,C  19,H  21)          112.3672         0.336576   
     81. A(O   5,C  19,H  20)          105.6664         0.336820   
     82. A(O  25,C  24,C  26)          126.9133         0.443441   
     83. A(O  15,C  24,C  26)          110.7745         0.398035   
     84. A(O  15,C  24,O  25)          122.3009         0.474923   
     85. A(C  28,C  26,C  29)          113.8122         0.361553   
     86. A(H  27,C  26,C  29)          109.8850         0.321471   
     87. A(C  24,C  26,C  29)          110.5213         0.367896   
     88. A(H  27,C  26,C  28)          108.2065         0.320198   
     89. A(C  24,C  26,C  28)          107.3767         0.366369   
     90. A(C  24,C  26,H  27)          106.7587         0.325579   
     91. A(H  37,C  28,H  38)          108.7423         0.287562   
     92. A(H  36,C  28,H  38)          108.7358         0.288018   
     93. A(C  26,C  28,H  38)          110.7932         0.321168   
     94. A(H  36,C  28,H  37)          107.4052         0.287725   
     95. A(C  26,C  28,H  37)          110.2855         0.320825   
     96. A(C  26,C  28,H  36)          110.7856         0.321358   
     97. A(C  31,C  29,H  32)          110.4664         0.322899   
     98. A(H  30,C  29,H  32)          105.5930         0.286745   
     99. A(C  26,C  29,H  32)          108.6119         0.321834   
    100. A(H  30,C  29,C  31)          109.6440         0.322818   
    101. A(C  26,C  29,C  31)          113.5217         0.364307   
    102. A(C  26,C  29,H  30)          108.6837         0.321753   
    103. A(H  34,C  31,H  35)          107.2616         0.287430   
    104. A(H  33,C  31,H  35)          107.5059         0.287129   
    105. A(C  29,C  31,H  35)          110.8842         0.323338   
    106. A(H  33,C  31,H  34)          107.5431         0.287002   
    107. A(C  29,C  31,H  34)          112.0574         0.323188   
    108. A(C  29,C  31,H  33)          111.3641         0.322833   
    109. D(O  14,C   1,C   0,C  10)     80.9714         0.009658   
    110. D(C   2,C   1,C   0,O  15)    151.9135         0.009658   
    111. D(O  14,C   1,C   0,O  15)    -32.7734         0.009658   
    112. D(C   2,C   1,C   0,C  10)    -94.3417         0.009658   
    113. D(O  14,C   1,C   0,C   8)   -158.2795         0.009658   
    114. D(C   2,C   1,C   0,C   8)     26.4074         0.009658   
    115. D(C   3,C   2,C   1,C   0)    175.4912         0.015980   
    116. D(C   3,C   2,C   1,O  14)      0.5187         0.015980   
    117. D(C   4,C   2,C   1,O  14)    171.2277         0.015980   
    118. D(C   4,C   2,C   1,C   0)    -13.7998         0.015980   
    119. D(H  17,C   3,C   2,C   4)     82.1847         0.012142   
    120. D(H  16,C   3,C   2,C   4)   -159.3367         0.012142   
    121. D(H  17,C   3,C   2,C   1)   -108.0128         0.012142   
    122. D(H  18,C   3,C   2,C   1)    129.0011         0.012142   
    123. D(H  16,C   3,C   2,C   1)     10.4658         0.012142   
    124. D(H  18,C   3,C   2,C   4)    -40.8014         0.012142   
    125. D(C   6,C   4,C   2,C   3)    166.4980         0.031159   
    126. D(C   6,C   4,C   2,C   1)     -3.1309         0.031159   
    127. D(O   5,C   4,C   2,C   1)   -179.7382         0.031159   
    128. D(O   5,C   4,C   2,C   3)    -10.1093         0.031159   
    129. D(C  19,O   5,C   4,C   6)    148.5182         0.030884   
    130. D(C  19,O   5,C   4,C   2)    -34.4679         0.030884   
    131. D(C   8,C   6,C   4,O   5)   -176.5100         0.016455   
    132. D(C   8,C   6,C   4,C   2)      6.4338         0.016455   
    133. D(H   7,C   6,C   4,O   5)      5.0579         0.016455   
    134. D(H   7,C   6,C   4,C   2)   -171.9983         0.016455   
    135. D(O   9,C   8,C   0,C   1)    162.6108         0.012446   
    136. D(C   6,C   8,C   0,O  15)   -149.5283         0.012446   
    137. D(C   6,C   8,C   0,C  10)     95.5036         0.012446   
    138. D(O   9,C   8,C   0,C  10)    -78.0877         0.012446   
    139. D(C   6,C   8,C   0,C   1)    -23.7979         0.012446   
    140. D(O   9,C   8,C   6,H   7)     -0.1097         0.040042   
    141. D(C   0,C   8,C   6,H   7)   -173.2888         0.040042   
    142. D(C   0,C   8,C   6,C   4)      8.3383         0.040042   
    143. D(O   9,C   8,C   0,O  15)     36.8804         0.012446   
    144. D(O   9,C   8,C   6,C   4)   -178.4825         0.040042   
    145. D(H  23,O   9,C   8,C   6)    172.6428         0.032622   
    146. D(H  23,O   9,C   8,C   0)    -13.9378         0.032622   
    147. D(H  13,C  10,C   0,C   8)    -62.4565         0.010892   
    148. D(H  13,C  10,C   0,C   1)     61.2802         0.010892   
    149. D(H  12,C  10,C   0,O  15)    -60.7163         0.010892   
    150. D(H  12,C  10,C   0,C   8)     57.7830         0.010892   
    151. D(H  12,C  10,C   0,C   1)   -178.4803         0.010892   
    152. D(H  11,C  10,C   0,O  15)     59.3576         0.010892   
    153. D(H  11,C  10,C   0,C   8)    177.8568         0.010892   
    154. D(H  13,C  10,C   0,O  15)    179.0442         0.010892   
    155. D(H  11,C  10,C   0,C   1)    -58.4065         0.010892   
    156. D(C  24,O  15,C   0,C  10)   -168.8137         0.017948   
    157. D(C  24,O  15,C   0,C   8)     73.5089         0.017948   
    158. D(C  24,O  15,C   0,C   1)    -53.9528         0.017948   
    159. D(H  22,C  19,O   5,C   4)    -35.5339         0.019789   
    160. D(H  21,C  19,O   5,C   4)     87.3899         0.019789   
    161. D(H  20,C  19,O   5,C   4)   -153.8427         0.019789   
    162. D(C  26,C  24,O  15,C   0)    164.3404         0.027070   
    163. D(O  25,C  24,O  15,C   0)    -14.5182         0.027070   
    164. D(C  29,C  26,C  24,O  25)    -22.7429         0.012026   
    165. D(C  29,C  26,C  24,O  15)    158.4637         0.012026   
    166. D(C  28,C  26,C  24,O  25)    101.9268         0.012026   
    167. D(C  28,C  26,C  24,O  15)    -76.8666         0.012026   
    168. D(H  27,C  26,C  24,O  25)   -142.2153         0.012026   
    169. D(H  27,C  26,C  24,O  15)     38.9913         0.012026   
    170. D(H  36,C  28,C  26,H  27)    -62.9757         0.010600   
    171. D(H  36,C  28,C  26,C  24)     51.9208         0.010600   
    172. D(H  38,C  28,C  26,C  29)    -64.6501         0.010600   
    173. D(H  38,C  28,C  26,H  27)     57.7972         0.010600   
    174. D(H  38,C  28,C  26,C  24)    172.6937         0.010600   
    175. D(H  37,C  28,C  26,C  29)     55.7995         0.010600   
    176. D(H  37,C  28,C  26,H  27)    178.2469         0.010600   
    177. D(H  37,C  28,C  26,C  24)    -66.8566         0.010600   
    178. D(H  36,C  28,C  26,C  29)    174.5769         0.010600   
    179. D(H  32,C  29,C  26,H  27)    179.1872         0.011093   
    180. D(H  32,C  29,C  26,C  24)     61.6203         0.011093   
    181. D(C  31,C  29,C  26,C  28)     64.0032         0.011093   
    182. D(C  31,C  29,C  26,H  27)    -57.5163         0.011093   
    183. D(C  31,C  29,C  26,C  24)   -175.0833         0.011093   
    184. D(H  30,C  29,C  26,C  28)   -173.7054         0.011093   
    185. D(H  30,C  29,C  26,H  27)     64.7751         0.011093   
    186. D(H  32,C  29,C  26,C  28)    -59.2933         0.011093   
    187. D(H  30,C  29,C  26,C  24)    -52.7919         0.011093   
    188. D(H  35,C  31,C  29,H  32)    -61.5312         0.011524   
    189. D(H  35,C  31,C  29,C  26)    176.1942         0.011524   
    190. D(H  34,C  31,C  29,H  32)     58.2891         0.011524   
    191. D(H  34,C  31,C  29,H  30)    174.2567         0.011524   
    192. D(H  34,C  31,C  29,C  26)    -63.9855         0.011524   
    193. D(H  33,C  31,C  29,H  32)    178.8015         0.011524   
    194. D(H  35,C  31,C  29,H  30)     54.4363         0.011524   
    195. D(H  33,C  31,C  29,H  30)    -65.2309         0.011524   
    196. D(H  33,C  31,C  29,C  26)     56.5269         0.011524   
    -----------------------------------------------------------------

Number of atoms                         .... 39
Number of degrees of freedom            .... 196

         *************************************************************
         *                GEOMETRY OPTIMIZATION CYCLE   1            *
         *************************************************************
---------------------------------
CARTESIAN COORDINATES (ANGSTROEM)
---------------------------------
  C      0.561296   -0.123943    0.728396
  C      0.472747    1.052933   -0.263112
  C     -0.690813    1.126476   -1.140673
  C     -0.774030    2.354094   -2.012884
  C     -1.482640    0.010489   -1.239654
  O     -2.590184   -0.099001   -2.004851
  C     -1.201081   -1.255671   -0.579816
  H     -1.822853   -2.112983   -0.832311
  C     -0.182765   -1.354836    0.286300
  O      0.140358   -2.505269    0.900894
  C     -0.024740    0.372650    2.055413
  H      0.551809    1.247195    2.385196
  H      0.033460   -0.415776    2.818998
  H     -1.076287    0.658293    1.917007
  O      1.340382    1.910186   -0.199973
  O      1.927279   -0.442365    1.024140
  H      0.187426    2.877525   -1.939693
  H     -1.555823    3.063901   -1.701717
  H     -0.942663    2.094917   -3.067908
  C     -3.440351    1.021878   -2.201430
  H     -4.433884    0.606754   -2.412778
  H     -3.123898    1.642738   -3.050608
  H     -3.488704    1.638579   -1.290928
  H      0.969455   -2.354032    1.378266
  C      2.725820   -0.683768   -0.059181
  O      2.276758   -0.885488   -1.156221
  C      4.183987   -0.628169    0.327480
  H      4.267914   -1.100665    1.321711
  C      4.565894    0.854391    0.466481
  C      5.037558   -1.393764   -0.686513
  H      4.622823   -2.408717   -0.802464
  C      6.509918   -1.482743   -0.298744
  H      4.927066   -0.914144   -1.672624
  H      6.636298   -1.941408    0.695771
  H      6.990608   -0.493014   -0.271134
  H      7.068842   -2.097022   -1.019823
  H      3.864806    1.376730    1.130693
  H      4.523955    1.352827   -0.514037
  H      5.581627    0.959171    0.872700

----------------------------
CARTESIAN COORDINATES (A.U.)
----------------------------
  NO LB      ZA    FRAG     MASS         X           Y           Z
   0 C     6.0000    0    12.011    1.060696   -0.234218    1.376469
   1 C     6.0000    0    12.011    0.893362    1.989755   -0.497210
   2 C     6.0000    0    12.011   -1.305447    2.128731   -2.155560
   3 C     6.0000    0    12.011   -1.462705    4.448593   -3.803799
   4 C     6.0000    0    12.011   -2.801784    0.019821   -2.342607
   5 O     8.0000    0    15.999   -4.894738   -0.187085   -3.788619
   6 C     6.0000    0    12.011   -2.269714   -2.372874   -1.095693
   7 H     1.0000    0     1.008   -3.444693   -3.992959   -1.572840
   8 C     6.0000    0    12.011   -0.345376   -2.560269    0.541029
   9 O     8.0000    0    15.999    0.265238   -4.734272    1.702443
  10 C     6.0000    0    12.011   -0.046752    0.704206    3.884168
  11 H     1.0000    0     1.008    1.042768    2.356857    4.507367
  12 H     1.0000    0     1.008    0.063230   -0.785703    5.327134
  13 H     1.0000    0     1.008   -2.033888    1.243993    3.622618
  14 O     8.0000    0    15.999    2.532955    3.609728   -0.377894
  15 O     8.0000    0    15.999    3.642029   -0.835949    1.935344
  16 H     1.0000    0     1.008    0.354184    5.437734   -3.665489
  17 H     1.0000    0     1.008   -2.940079    5.789934   -3.215779
  18 H     1.0000    0     1.008   -1.781375    3.958819   -5.797506
  19 C     6.0000    0    12.011   -6.501321    1.931070   -4.160100
  20 H     1.0000    0     1.008   -8.378826    1.146599   -4.559490
  21 H     1.0000    0     1.008   -5.903312    3.104325   -5.764814
  22 H     1.0000    0     1.008   -6.592695    3.096466   -2.439500
  23 H     1.0000    0     1.008    1.832004   -4.448476    2.604545
  24 C     6.0000    0    12.011    5.151053   -1.292134   -0.111836
  25 O     8.0000    0    15.999    4.302449   -1.673330   -2.184941
  26 C     6.0000    0    12.011    7.906590   -1.187067    0.618848
  27 H     1.0000    0     1.008    8.065189   -2.079955    2.497672
  28 C     6.0000    0    12.011    8.628289    1.614565    0.881521
  29 C     6.0000    0    12.011    9.519605   -2.633832   -1.297322
  30 H     1.0000    0     1.008    8.735869   -4.551815   -1.516437
  31 C     6.0000    0    12.011   12.301962   -2.801978   -0.564544
  32 H     1.0000    0     1.008    9.310805   -1.727482   -3.160801
  33 H     1.0000    0     1.008   12.540786   -3.668729    1.314817
  34 H     1.0000    0     1.008   13.210335   -0.931661   -0.512369
  35 H     1.0000    0     1.008   13.358175   -3.962797   -1.927186
  36 H     1.0000    0     1.008    7.303425    2.601643    2.136700
  37 H     1.0000    0     1.008    8.549036    2.556473   -0.971389
  38 H     1.0000    0     1.008   10.547746    1.812571    1.649164

--------------------------------
INTERNAL COORDINATES (ANGSTROEM)
--------------------------------
 C      0   0   0     0.000000000000     0.00000000     0.00000000
 C      1   0   0     1.541416932190     0.00000000     0.00000000
 C      2   1   0     1.459244241095   118.10701756     0.00000000
 C      3   2   1     1.508218502583   115.64530584   175.49120654
 C      3   2   1     1.371938125594   117.55517577   346.20024910
 O      5   3   2     1.350617718248   125.45788928   180.26180462
 C      5   3   2     1.455274133050   124.28801398   356.86909627
 H      7   5   3     1.088732295081   117.99960135   188.00174530
 C      7   5   3     1.340506657401   120.28422403     6.43381670
 O      9   7   5     1.343737454064   122.78715999   181.51746630
 C      1   2   3     1.533302618283   106.70663103   265.65834364
 H     11   1   2     1.098177824177   108.49110777   301.59352545
 H     11   1   2     1.099120034255   110.40774021   181.51969013
 H     11   1   2     1.098407591695   109.94202309    61.28018929
 O      2   1   3     1.221335225299   117.50575088   175.31307584
 O      1   2   3     1.433445722694   110.91960331   151.91348964
 H      4   3   2     1.097148382936   107.54125061    10.46577559
 H      4   3   2     1.100841121137   113.61220039   251.98717560
 H      4   3   2     1.099402313348   111.81067616   129.00108204
 C      6   5   3     1.420491803486   120.34625148   325.53206705
 H     20   6   5     1.097316606349   105.66636189   206.15733380
 H     20   6   5     1.098504855016   112.36715381    87.38987827
 H     20   6   5     1.100759750361   110.72622174   324.46611944
 H     10   9   7     0.968585820649   107.31205277   172.64281074
 C     16   1   2     1.367306668649   115.61312994   306.04716637
 O     25  16   1     1.202432700755   122.30091691   345.48175141
 C     25  16   1     1.509585697339   110.77452385   164.34042455
 H     27  25  16     1.103988900626   106.75867323    38.99129804
 C     27  25  16     1.537256773688   107.37668941   283.13341884
 C     27  25  16     1.530653768857   110.52127111   158.46371337
 H     30  27  25     1.102533149994   108.68370314   307.20813710
 C     30  27  25     1.525164263088   113.52172110   184.91674057
 H     30  27  25     1.102115570521   108.61187848    61.62025482
 H     32  30  27     1.102454340030   111.36406155    56.52690743
 H     32  30  27     1.100631037924   112.05740828   296.01451913
 H     32  30  27     1.099858923616   110.88418765   176.19417627
 H     29  27  25     1.097970853716   110.78557289    51.92075477
 H     29  27  25     1.100732880467   110.28550646   293.14337669
 H     29  27  25     1.098956892535   110.79320885   172.69369043

---------------------------
INTERNAL COORDINATES (A.U.)
---------------------------
 C      0   0   0     0.000000000000     0.00000000     0.00000000
 C      1   0   0     2.912855860028     0.00000000     0.00000000
 C      2   1   0     2.757571978172   118.10701756     0.00000000
 C      3   2   1     2.850119919995   115.64530584   175.49120654
 C      3   2   1     2.592587330058   117.55517577   346.20024910
 O      5   3   2     2.552297599110   125.45788928   180.26180462
 C      5   3   2     2.750069561245   124.28801398   356.86909627
 H      7   5   3     2.057405870859   117.99960135   188.00174530
 C      7   5   3     2.533190463187   120.28422403     6.43381670
 O      9   7   5     2.539295784073   122.78715999   181.51746630
 C      1   2   3     2.897522028980   106.70663103   265.65834364
 H     11   1   2     2.075255334041   108.49110777   301.59352545
 H     11   1   2     2.077035853048   110.40774021   181.51969013
 H     11   1   2     2.075689531724   109.94202309    61.28018929
 O      2   1   3     2.307989093525   117.50575088   175.31307584
 O      1   2   3     2.708819843732   110.91960331   151.91348964
 H      4   3   2     2.073309972023   107.54125061    10.46577559
 H      4   3   2     2.080288235908   113.61220039   251.98717560
 H      4   3   2     2.077569283226   111.81067616   129.00108204
 C      6   5   3     2.684340484068   120.34625148   325.53206705
 H     20   6   5     2.073627868203   105.66636189   206.15733380
 H     20   6   5     2.075873332762   112.36715381    87.38987827
 H     20   6   5     2.080134467425   110.72622174   324.46611944
 H     10   9   7     1.830361938226   107.31205277   172.64281074
 C     16   1   2     2.583835144830   115.61312994   306.04716637
 O     25  16   1     2.272268498897   122.30091691   345.48175141
 C     25  16   1     2.852703543656   110.77452385   164.34042455
 H     27  25  16     2.086236677072   106.75867323    38.99129804
 C     27  25  16     2.904994299786   107.37668941   283.13341884
 C     27  25  16     2.892516428993   110.52127111   158.46371337
 H     30  27  25     2.083485707058   108.68370314   307.20813710
 C     30  27  25     2.882142766481   113.52172110   184.91674057
 H     30  27  25     2.082696596215   108.61187848    61.62025482
 H     32  30  27     2.083336777809   111.36406155    56.52690743
 H     32  30  27     2.079891236169   112.05740828   296.01451913
 H     32  30  27     2.078432151584   110.88418765   176.19417627
 H     29  27  25     2.074864216550   110.78557289    51.92075477
 H     29  27  25     2.080083690685   110.28550646   293.14337669
 H     29  27  25     2.076727559876   110.79320885   172.69369043

---------------------
BASIS SET INFORMATION
---------------------
There are 3 groups of distinct atoms

 Group   1 Type C   : 17s4p1d contracted to 3s2p1d pattern {881/31/1}
 Group   2 Type O   : 17s4p1d contracted to 3s2p1d pattern {881/31/1}
 Group   3 Type H   : 4s1p contracted to 2s1p pattern {31/1}

Atom   0C    basis set group =>   1
Atom   1C    basis set group =>   1
Atom   2C    basis set group =>   1
Atom   3C    basis set group =>   1
Atom   4C    basis set group =>   1
Atom   5O    basis set group =>   2
Atom   6C    basis set group =>   1
Atom   7H    basis set group =>   3
Atom   8C    basis set group =>   1
Atom   9O    basis set group =>   2
Atom  10C    basis set group =>   1
Atom  11H    basis set group =>   3
Atom  12H    basis set group =>   3
Atom  13H    basis set group =>   3
Atom  14O    basis set group =>   2
Atom  15O    basis set group =>   2
Atom  16H    basis set group =>   3
Atom  17H    basis set group =>   3
Atom  18H    basis set group =>   3
Atom  19C    basis set group =>   1
Atom  20H    basis set group =>   3
Atom  21H    basis set group =>   3
Atom  22H    basis set group =>   3
Atom  23H    basis set group =>   3
Atom  24C    basis set group =>   1
Atom  25O    basis set group =>   2
Atom  26C    basis set group =>   1
Atom  27H    basis set group =>   3
Atom  28C    basis set group =>   1
Atom  29C    basis set group =>   1
Atom  30H    basis set group =>   3
Atom  31C    basis set group =>   1
Atom  32H    basis set group =>   3
Atom  33H    basis set group =>   3
Atom  34H    basis set group =>   3
Atom  35H    basis set group =>   3
Atom  36H    basis set group =>   3
Atom  37H    basis set group =>   3
Atom  38H    basis set group =>   3
---------------------------------
AUXILIARY/J BASIS SET INFORMATION
---------------------------------
There are 3 groups of distinct atoms

 Group   1 Type C   : 12s5p4d2f1g contracted to 6s4p3d1f1g pattern {711111/2111/211/2/1}
 Group   2 Type O   : 12s5p4d2f1g contracted to 6s4p3d1f1g pattern {711111/2111/211/2/1}
 Group   3 Type H   : 5s2p1d contracted to 3s1p1d pattern {311/2/1}

Atom   0C    basis set group =>   1
Atom   1C    basis set group =>   1
Atom   2C    basis set group =>   1
Atom   3C    basis set group =>   1
Atom   4C    basis set group =>   1
Atom   5O    basis set group =>   2
Atom   6C    basis set group =>   1
Atom   7H    basis set group =>   3
Atom   8C    basis set group =>   1
Atom   9O    basis set group =>   2
Atom  10C    basis set group =>   1
Atom  11H    basis set group =>   3
Atom  12H    basis set group =>   3
Atom  13H    basis set group =>   3
Atom  14O    basis set group =>   2
Atom  15O    basis set group =>   2
Atom  16H    basis set group =>   3
Atom  17H    basis set group =>   3
Atom  18H    basis set group =>   3
Atom  19C    basis set group =>   1
Atom  20H    basis set group =>   3
Atom  21H    basis set group =>   3
Atom  22H    basis set group =>   3
Atom  23H    basis set group =>   3
Atom  24C    basis set group =>   1
Atom  25O    basis set group =>   2
Atom  26C    basis set group =>   1
Atom  27H    basis set group =>   3
Atom  28C    basis set group =>   1
Atom  29C    basis set group =>   1
Atom  30H    basis set group =>   3
Atom  31C    basis set group =>   1
Atom  32H    basis set group =>   3
Atom  33H    basis set group =>   3
Atom  34H    basis set group =>   3
Atom  35H    basis set group =>   3
Atom  36H    basis set group =>   3
Atom  37H    basis set group =>   3
Atom  38H    basis set group =>   3
------------------------------------------------------------------------------
                           ORCA GTO INTEGRAL CALCULATION
                           -- RI-GTO INTEGRALS CHOSEN --
------------------------------------------------------------------------------
------------------------------------------------------------------------------
                   ___                                                        
                  /   \      - P O W E R E D   B Y -                         
                 /     \                                                     
                 |  |  |   _    _      __       _____    __    __             
                 |  |  |  | |  | |    /  \     |  _  \  |  |  /  |          
                  \  \/   | |  | |   /    \    | | | |  |  | /  /          
                 / \  \   | |__| |  /  /\  \   | |_| |  |  |/  /          
                |  |  |   |  __  | /  /__\  \  |    /   |      \           
                |  |  |   | |  | | |   __   |  |    \   |  |\   \          
                \     /   | |  | | |  |  |  |  | |\  \  |  | \   \       
                 \___/    |_|  |_| |__|  |__|  |_| \__\ |__|  \__/        
                                                                              
                      - O R C A' S   B I G   F R I E N D -                    
                                      &                                       
                       - I N T E G R A L  F E E D E R -                       
                                                                              
 v1 FN, 2020, v2 2021                                                         
------------------------------------------------------------------------------


Reading SHARK input file wasabidienone_opt_iroot_0.SHARKINP.tmp ... ok
----------------------
SHARK INTEGRAL PACKAGE
----------------------

Number of atoms                             ...     39
Number of basis functions                   ...    480
Number of shells                            ...    288
Maximum angular momentum                    ...      2
Integral batch strategy                     ... SHARK/LIBINT Hybrid
RI-J (if used) integral strategy            ... SPLIT-RIJ (Revised 2003 algorithm where possible)
Printlevel                                  ...      1
Contraction scheme used                     ... PARTIAL GENERAL contraction
Coulomb Range Separation                    ... NOT USED
Exchange Range Separation                   ... Long Range
   Mu parameter                             ...  0.250000
   Scaling (regular/separated)              ...  0.195728  0.804272
Finite Nucleus Model                        ... NOT USED
Auxiliary Coulomb fitting basis             ... AVAILABLE
   # of basis functions in Aux-J            ...   1151
   # of shells in Aux-J                     ...    385
   Maximum angular momentum in Aux-J        ...      4
Auxiliary J/K fitting basis                 ... NOT available
Auxiliary Correlation fitting basis         ... NOT available
Auxiliary 'external' fitting basis          ... NOT available
Integral threshold                          ...     2.500000e-11
Primitive cut-off                           ...     2.500000e-12
Primitive pair pre-selection threshold      ...     2.500000e-12

Calculating pre-screening integrals         ... done (  0.1 sec) Dimension = 288
Calculating pre-screening integrals (ORCA)  ... done (  0.5 sec) Dimension = 174
Organizing shell pair data                  ... done (  0.2 sec)
Shell pair information
Total number of shell pairs                 ...     41616
Shell pairs after pre-screening             ...     22338
Total number of primitive shell pairs       ...     67278
Primitive shell pairs kept                  ...     30423
          la=0 lb=0:   9865 shell pairs
          la=1 lb=0:   7771 shell pairs
          la=1 lb=1:   1305 shell pairs
          la=2 lb=0:   2421 shell pairs
          la=2 lb=1:    828 shell pairs
          la=2 lb=2:    148 shell pairs

Calculating one electron integrals          ... done (  0.2 sec)
Calculating RI/J V-Matrix + Cholesky decomp.... done (  0.1 sec)
Calculating Nuclear repulsion               ... done (  0.0 sec) ENN=   1571.754485549294 Eh

SHARK setup successfully completed in   1.4 seconds

Maximum memory used throughout the entire GTOINT-calculation: 82.1 MB
-------------------------------------------------------------------------------
                                 ORCA SCF
-------------------------------------------------------------------------------

------------
SCF SETTINGS
------------
Hamiltonian:
 Density Functional     Method          .... DFT(GTOs)
 Exchange Functional    Exchange        .... WB97X-D3
 Correlation Functional Correlation     .... WB97X-D3
 Gradients option       PostSCFGGA      .... off
 Hybrid DFT is turned on
   Fraction HF Exchange ScalHFX         ....  0.195728
   Scaling of DF-GGA-X  ScalDFX         ....  0.000000
   Scaling of DF-GGA-C  ScalDFC         ....  1.000000
   Scaling of DF-LDA-C  ScalLDAC        ....  1.000000
   Perturbative correction              ....  0.000000
   Density functional embedding theory  .... OFF
 Long-range corrected/Screened/Range-Separated Hybrid DFT is turned on
   Amount of maximum screened exact exchange              ....  0.804272
   Range separation parameter mu (erf(mu*r12)/r12)        ....  0.250000
 RI-approximation to the Coulomb term is turned on
   Number of AuxJ basis functions       .... 1151
   RIJ-COSX (HFX calculated with COS-X)).... on


General Settings:
 Integral files         IntName         .... wasabidienone_opt_iroot_0
 Hartree-Fock type      HFTyp           .... RHF
 Total Charge           Charge          ....    0
 Multiplicity           Mult            ....    1
 Number of Electrons    NEL             ....  144
 Basis Dimension        Dim             ....  366
 Nuclear Repulsion      ENuc            ....   1571.7544855493 Eh

Convergence Acceleration:
 DIIS                   CNVDIIS         .... on
   Start iteration      DIISMaxIt       ....    12
   Startup error        DIISStart       ....  0.200000
   # of expansion vecs  DIISMaxEq       ....     5
   Bias factor          DIISBfac        ....   1.050
   Max. coefficient     DIISMaxC        ....  10.000
 Trust-Rad. Augm. Hess. CNVTRAH         .... auto
   Auto Start mean grad. ratio tolernc. ....  1.125000
   Auto Start start iteration           ....    20
   Auto Start num. interpolation iter.  ....    10
   Max. Number of Micro iterations      ....    16
   Max. Number of Macro iterations      .... Maxiter - #DIIS iter
   Number of Davidson start vectors     ....     2
   Converg. threshold I  (grad. norm)   ....   1.000e-05
   Converg. threshold II (energy diff.) ....   1.000e-08
   Grad. Scal. Fac. for Micro threshold ....   0.100
   Minimum threshold for Micro iter.    ....   0.010
   NR start threshold (gradient norm)   ....   0.001
   Initial trust radius                 ....   0.400
   Minimum AH scaling param. (alpha)    ....   1.000
   Maximum AH scaling param. (alpha)    .... 1000.000
   Orbital update algorithm             .... Taylor
   White noise on init. David. guess    .... on
   Maximum white noise                  ....   0.010
   Quad. conv. algorithm                .... NR
 SOSCF                  CNVSOSCF        .... on
   Start iteration      SOSCFMaxIt      ....   150
   Startup grad/error   SOSCFStart      ....  0.003300
 Level Shifting         CNVShift        .... on
   Level shift para.    LevelShift      ....    0.2500
   Turn off err/grad.   ShiftErr        ....    0.0010
 Zerner damping         CNVZerner       .... off
 Static damping         CNVDamp         .... on
   Fraction old density DampFac         ....    0.7000
   Max. Damping (<1)    DampMax         ....    0.9800
   Min. Damping (>=0)   DampMin         ....    0.0000
   Turn off err/grad.   DampErr         ....    0.1000
 Fernandez-Rico         CNVRico         .... off

SCF Procedure:
 Maximum # iterations   MaxIter         ....   125
 SCF integral mode      SCFMode         .... Direct
   Integral package                     .... SHARK and LIBINT hybrid scheme
 Reset frequency        DirectResetFreq ....    20
 Integral Threshold     Thresh          ....  2.500e-11 Eh
 Primitive CutOff       TCut            ....  2.500e-12 Eh

Convergence Tolerance:
 Convergence Check Mode ConvCheckMode   .... Total+1el-Energy
 Convergence forced     ConvForced      .... 1
 Energy Change          TolE            ....  1.000e-08 Eh
 1-El. energy change                    ....  1.000e-05 Eh
 Orbital Gradient       TolG            ....  1.000e-05
 Orbital Rotation angle TolX            ....  1.000e-05
 DIIS Error             TolErr          ....  5.000e-07


Diagonalization of the overlap matrix:
Smallest eigenvalue                        ... 4.144e-04
Time for diagonalization                   ...    0.040 sec
Threshold for overlap eigenvalues          ... 1.000e-08
Number of eigenvalues below threshold      ... 0
Time for construction of square roots      ...    0.015 sec
Total time needed                          ...    0.056 sec

Time for model grid setup =    1.933 sec

------------------------------
INITIAL GUESS: MODEL POTENTIAL
------------------------------
Loading Hartree-Fock densities                     ... done
Calculating cut-offs                               ... done
Initializing the effective Hamiltonian             ... done
Setting up the integral package (SHARK)            ... done
Starting the Coulomb interaction                   ... done (   2.6 sec)
Reading the grid                                   ... done
Mapping shells                                     ... done
Starting the XC term evaluation                    ... done (   1.6 sec)
  promolecular density results
     # of electrons  =    143.989139558
     EX              =   -118.301567052
     EC              =     -4.831832952
     EX+EC           =   -123.133400004
Transforming the Hamiltonian                       ... done (   0.0 sec)
Diagonalizing the Hamiltonian                      ... done (   0.0 sec)
Back transforming the eigenvectors                 ... done (   0.0 sec)
Now organizing SCF variables                       ... done
                      ------------------
                      INITIAL GUESS DONE (   6.2 sec)
                      ------------------
-------------------
DFT GRID GENERATION
-------------------

General Integration Accuracy     IntAcc      ... 4.388
Radial Grid Type                 RadialGrid  ... OptM3 with GC (2021)
Angular Grid (max. ang.)         AngularGrid ... 4 (Lebedev-302)
Angular grid pruning method      GridPruning ... 4 (adaptive)
Weight generation scheme         WeightScheme... Becke
Basis function cutoff            BFCut       ... 1.0000e-11
Integration weight cutoff        WCut        ... 1.0000e-14
Angular grids for H and He will be reduced by one unit
Partially contracted basis set               ... off
Rotationally invariant grid construction     ... off

Total number of grid points                  ...   177277
Total number of batches                      ...     2791
Average number of points per batch           ...       63
Average number of grid points per atom       ...     4546
Time for grid setup =    6.465 sec

--------------------
COSX GRID GENERATION
--------------------

GRIDX 1
-------
General Integration Accuracy     IntAcc      ... 3.816
Radial Grid Type                 RadialGrid  ... OptM3 with GC (2021)
Angular Grid (max. ang.)         AngularGrid ... 1 (Lebedev-50)
Angular grid pruning method      GridPruning ... 4 (adaptive)
Weight generation scheme         WeightScheme... Becke
Basis function cutoff            BFCut       ... 1.0000e-11
Integration weight cutoff        WCut        ... 1.0000e-14
Angular grids for H and He will be reduced by one unit
Partially contracted basis set               ... on
Rotationally invariant grid construction     ... off

Total number of grid points                  ...    22568
Total number of batches                      ...      377
Average number of points per batch           ...       59
Average number of grid points per atom       ...      579
UseSFitting                                  ... on

GRIDX 2
-------
General Integration Accuracy     IntAcc      ... 4.020
Radial Grid Type                 RadialGrid  ... OptM3 with GC (2021)
Angular Grid (max. ang.)         AngularGrid ... 2 (Lebedev-110)
Angular grid pruning method      GridPruning ... 4 (adaptive)
Weight generation scheme         WeightScheme... Becke
Basis function cutoff            BFCut       ... 1.0000e-11
Integration weight cutoff        WCut        ... 1.0000e-14
Angular grids for H and He will be reduced by one unit
Partially contracted basis set               ... on
Rotationally invariant grid construction     ... off

Total number of grid points                  ...    48076
Total number of batches                      ...      771
Average number of points per batch           ...       62
Average number of grid points per atom       ...     1233
UseSFitting                                  ... on

GRIDX 3
-------
General Integration Accuracy     IntAcc      ... 4.338
Radial Grid Type                 RadialGrid  ... OptM3 with GC (2021)
Angular Grid (max. ang.)         AngularGrid ... 3 (Lebedev-194)
Angular grid pruning method      GridPruning ... 4 (adaptive)
Weight generation scheme         WeightScheme... Becke
Basis function cutoff            BFCut       ... 1.0000e-11
Integration weight cutoff        WCut        ... 1.0000e-14
Angular grids for H and He will be reduced by one unit
Partially contracted basis set               ... on
Rotationally invariant grid construction     ... off

Total number of grid points                  ...   104883
Total number of batches                      ...     1661
Average number of points per batch           ...       63
Average number of grid points per atom       ...     2689
UseSFitting                                  ... on

Time for X-Grid setup             =    8.879 sec

 re-compute Schwartz prescreening matrix in partically contracted basis (1) ...done (   0.182 sec)
--------------
SCF ITERATIONS
--------------
ITER       Energy         Delta-E        Max-DP      RMS-DP      [F,P]     Damp
               ***  Starting incremental Fock matrix formation  ***
  0   -920.9504575974   0.000000000000 0.07500932  0.00127466  0.2413055 0.7000
  1   -921.1584491265  -0.207991529032 0.04727517  0.00090612  0.1134076 0.7000
                               ***Turning on DIIS***
  2   -921.2571306017  -0.098681475186 0.06901158  0.00164985  0.0501302 0.0000
  3   -921.4209829277  -0.163852326031 0.03457648  0.00061552  0.0558379 0.0000
  4   -921.4453942162  -0.024411288510 0.00841209  0.00014273  0.0105662 0.0000
  5   -921.4464516734  -0.001057457164 0.00372096  0.00007195  0.0058748 0.0000
                      *** Initiating the SOSCF procedure ***
                           *** Shutting down DIIS ***
                      *** Re-Reading the Fockian *** 
                      *** Removing any level shift *** 
ITER      Energy       Delta-E        Grad      Rot      Max-DP    RMS-DP
  6   -921.44666583  -0.0002141583  0.002326  0.002326  0.001651  0.000041
               *** Restarting incremental Fock matrix formation ***
  7   -921.44671358  -0.0000477505  0.001679  0.005402  0.001155  0.000037
  8   -921.44675144  -0.0000378573  0.000667  0.006690  0.001856  0.000052
  9   -921.44676341  -0.0000119705  0.000390  0.001076  0.000797  0.000013
 10   -921.44676792  -0.0000045138  0.000072  0.000155  0.000271  0.000005
 11   -921.44676806  -0.0000001396  0.000050  0.000094  0.000108  0.000002
 12   -921.44676827  -0.0000002085  0.000009  0.000048  0.000029  0.000001
 13   -921.44676827  -0.0000000019  0.000006  0.000009  0.000018  0.000000
                  ***Gradient check signals convergence***
              ***Rediagonalizing the Fockian in SOSCF/NRSCF***

               *****************************************************
               *                     SUCCESS                       *
               *           SCF CONVERGED AFTER  14 CYCLES          *
               *****************************************************

Old exchange energy                            =    -39.128584306 Eh
New exchange energy                            =    -39.128499078 Eh
Exchange energy change after final integration =      0.000085228 Eh
Total energy after final integration           =   -921.446683053 Eh
Final COS-X integration done in                =   221.134 sec

----------------
TOTAL SCF ENERGY
----------------

Total Energy       :         -921.44668305 Eh          -25073.83898 eV

Components:
Nuclear Repulsion  :         1571.75448555 Eh           42769.61392 eV
Electronic Energy  :        -2493.20116860 Eh          -67843.45289 eV
One Electron Energy:        -4378.76627562 Eh         -119152.28794 eV
Two Electron Energy:         1885.56510701 Eh           51308.83505 eV
Max COSX asymmetry :            0.00000294 Eh               0.00008 eV

Virial components:
Potential Energy   :        -1836.75604898 Eh          -49980.67306 eV
Kinetic Energy     :          915.30936593 Eh           24906.83409 eV
Virial Ratio       :            2.00670518


DFT components:
N(Alpha)           :       72.000063989416 electrons
N(Beta)            :       72.000063989416 electrons
N(Total)           :      144.000127978831 electrons
E(XC)              :      -87.152562424639 Eh       
DFET-embed. en.    :        0.000000000000 Eh       

---------------
SCF CONVERGENCE
---------------

  Last Energy change         ...   -7.5006e-09  Tolerance :   1.0000e-08
  Last MAX-Density change    ...    7.9936e-15  Tolerance :   1.0000e-07
  Last RMS-Density change    ...    4.7129e-17  Tolerance :   5.0000e-09
  Last Orbital Gradient      ...    2.0337e-06  Tolerance :   1.0000e-05
  Last Orbital Rotation      ...    6.5843e-06  Tolerance :   1.0000e-05

             **** THE GBW FILE WAS UPDATED (wasabidienone_opt_iroot_0.gbw) ****
             **** DENSITY wasabidienone_opt_iroot_0.scfp WAS UPDATED ****
             **** ENERGY FILE WAS UPDATED (wasabidienone_opt_iroot_0.en.tmp) ****
             **** THE GBW FILE WAS UPDATED (wasabidienone_opt_iroot_0.gbw) ****
             **** DENSITY wasabidienone_opt_iroot_0.scfp WAS UPDATED ****
----------------
ORBITAL ENERGIES
----------------

  NO   OCC          E(Eh)            E(eV) 
   0   2.0000     -19.301048      -525.2082 
   1   2.0000     -19.294466      -525.0291 
   2   2.0000     -19.287237      -524.8324 
   3   2.0000     -19.242219      -523.6074 
   4   2.0000     -19.221209      -523.0357 
   5   2.0000     -10.421721      -283.5895 
   6   2.0000     -10.375147      -282.3221 
   7   2.0000     -10.373194      -282.2689 
   8   2.0000     -10.371653      -282.2270 
   9   2.0000     -10.369663      -282.1729 
  10   2.0000     -10.351191      -281.6702 
  11   2.0000     -10.308069      -280.4968 
  12   2.0000     -10.305688      -280.4320 
  13   2.0000     -10.288859      -279.9741 
  14   2.0000     -10.285816      -279.8913 
  15   2.0000     -10.284778      -279.8630 
  16   2.0000     -10.284120      -279.8451 
  17   2.0000     -10.283384      -279.8251 
  18   2.0000     -10.281577      -279.7759 
  19   2.0000      -1.240378       -33.7524 
  20   2.0000      -1.200061       -32.6553 
  21   2.0000      -1.198458       -32.6117 
  22   2.0000      -1.150527       -31.3074 
  23   2.0000      -1.138688       -30.9853 
  24   2.0000      -0.969596       -26.3840 
  25   2.0000      -0.937699       -25.5161 
  26   2.0000      -0.907880       -24.7047 
  27   2.0000      -0.880451       -23.9583 
  28   2.0000      -0.849775       -23.1235 
  29   2.0000      -0.844060       -22.9681 
  30   2.0000      -0.791436       -21.5361 
  31   2.0000      -0.784638       -21.3511 
  32   2.0000      -0.764871       -20.8132 
  33   2.0000      -0.739949       -20.1350 
  34   2.0000      -0.705358       -19.1938 
  35   2.0000      -0.697201       -18.9718 
  36   2.0000      -0.672488       -18.2993 
  37   2.0000      -0.663871       -18.0648 
  38   2.0000      -0.631713       -17.1898 
  39   2.0000      -0.615262       -16.7421 
  40   2.0000      -0.591945       -16.1076 
  41   2.0000      -0.582538       -15.8517 
  42   2.0000      -0.581678       -15.8283 
  43   2.0000      -0.569481       -15.4964 
  44   2.0000      -0.555832       -15.1250 
  45   2.0000      -0.550115       -14.9694 
  46   2.0000      -0.544940       -14.8286 
  47   2.0000      -0.536924       -14.6104 
  48   2.0000      -0.527205       -14.3460 
  49   2.0000      -0.520267       -14.1572 
  50   2.0000      -0.518403       -14.1065 
  51   2.0000      -0.508529       -13.8378 
  52   2.0000      -0.502646       -13.6777 
  53   2.0000      -0.495741       -13.4898 
  54   2.0000      -0.488635       -13.2964 
  55   2.0000      -0.484518       -13.1844 
  56   2.0000      -0.476741       -12.9728 
  57   2.0000      -0.475004       -12.9255 
  58   2.0000      -0.465388       -12.6638 
  59   2.0000      -0.461545       -12.5593 
  60   2.0000      -0.457912       -12.4604 
  61   2.0000      -0.453014       -12.3271 
  62   2.0000      -0.446434       -12.1481 
  63   2.0000      -0.435430       -11.8487 
  64   2.0000      -0.421790       -11.4775 
  65   2.0000      -0.419750       -11.4220 
  66   2.0000      -0.418838       -11.3972 
  67   2.0000      -0.410617       -11.1735 
  68   2.0000      -0.372467       -10.1353 
  69   2.0000      -0.352432        -9.5902 
  70   2.0000      -0.337730        -9.1901 
  71   2.0000      -0.288857        -7.8602 
  72   0.0000       0.022363         0.6085 
  73   0.0000       0.087785         2.3887 
  74   0.0000       0.115848         3.1524 
  75   0.0000       0.127749         3.4762 
  76   0.0000       0.144580         3.9342 
  77   0.0000       0.154353         4.2002 
  78   0.0000       0.160692         4.3727 
  79   0.0000       0.175134         4.7656 
  80   0.0000       0.186163         5.0657 
  81   0.0000       0.188400         5.1266 
  82   0.0000       0.192446         5.2367 
  83   0.0000       0.195184         5.3112 
  84   0.0000       0.199752         5.4355 
  85   0.0000       0.204466         5.5638 
  86   0.0000       0.209262         5.6943 
  87   0.0000       0.220012         5.9868 
  88   0.0000       0.225272         6.1300 
  89   0.0000       0.229991         6.2584 
  90   0.0000       0.233728         6.3601 
  91   0.0000       0.237523         6.4633 
  92   0.0000       0.239042         6.5047 
  93   0.0000       0.251224         6.8361 
  94   0.0000       0.259301         7.0559 
  95   0.0000       0.264389         7.1944 
  96   0.0000       0.269428         7.3315 
  97   0.0000       0.275071         7.4851 
  98   0.0000       0.288231         7.8432 
  99   0.0000       0.294741         8.0203 
 100   0.0000       0.299884         8.1603 
 101   0.0000       0.309472         8.4212 
 102   0.0000       0.321930         8.7602 
 103   0.0000       0.339373         9.2348 
 104   0.0000       0.344524         9.3750 
 105   0.0000       0.350727         9.5438 
 106   0.0000       0.363134         9.8814 
 107   0.0000       0.369166        10.0455 
 108   0.0000       0.400210        10.8903 
 109   0.0000       0.416189        11.3251 
 110   0.0000       0.441600        12.0165 
 111   0.0000       0.450059        12.2467 
 112   0.0000       0.475275        12.9329 
 113   0.0000       0.489437        13.3183 
 114   0.0000       0.491287        13.3686 
 115   0.0000       0.512279        13.9398 
 116   0.0000       0.517824        14.0907 
 117   0.0000       0.521896        14.2015 
 118   0.0000       0.530918        14.4470 
 119   0.0000       0.538869        14.6634 
 120   0.0000       0.543011        14.7761 
 121   0.0000       0.549439        14.9510 
 122   0.0000       0.557218        15.1627 
 123   0.0000       0.563048        15.3213 
 124   0.0000       0.570042        15.5116 
 125   0.0000       0.574611        15.6360 
 126   0.0000       0.587490        15.9864 
 127   0.0000       0.592715        16.1286 
 128   0.0000       0.612732        16.6733 
 129   0.0000       0.614922        16.7329 
 130   0.0000       0.620984        16.8978 
 131   0.0000       0.636195        17.3117 
 132   0.0000       0.646485        17.5917 
 133   0.0000       0.646990        17.6055 
 134   0.0000       0.661071        17.9887 
 135   0.0000       0.671131        18.2624 
 136   0.0000       0.679357        18.4862 
 137   0.0000       0.685104        18.6426 
 138   0.0000       0.690418        18.7872 
 139   0.0000       0.696668        18.9573 
 140   0.0000       0.709536        19.3075 
 141   0.0000       0.712466        19.3872 
 142   0.0000       0.715905        19.4808 
 143   0.0000       0.723898        19.6983 
 144   0.0000       0.729633        19.8543 
 145   0.0000       0.731932        19.9169 
 146   0.0000       0.735450        20.0126 
 147   0.0000       0.739560        20.1244 
 148   0.0000       0.743484        20.2312 
 149   0.0000       0.746039        20.3008 
 150   0.0000       0.746895        20.3241 
 151   0.0000       0.757024        20.5997 
 152   0.0000       0.760392        20.6913 
 153   0.0000       0.762341        20.7444 
 154   0.0000       0.766894        20.8683 
 155   0.0000       0.773894        21.0587 
 156   0.0000       0.775799        21.1106 
 157   0.0000       0.776096        21.1187 
 158   0.0000       0.783589        21.3225 
 159   0.0000       0.786490        21.4015 
 160   0.0000       0.791630        21.5414 
 161   0.0000       0.798108        21.7176 
 162   0.0000       0.803603        21.8671 
 163   0.0000       0.804747        21.8983 
 164   0.0000       0.816719        22.2240 
 165   0.0000       0.824307        22.4305 
 166   0.0000       0.844021        22.9670 
 167   0.0000       0.858945        23.3731 
 168   0.0000       0.860750        23.4222 
 169   0.0000       0.873659        23.7735 
 170   0.0000       0.885754        24.1026 
 171   0.0000       0.897402        24.4195 
 172   0.0000       0.903995        24.5990 
 173   0.0000       0.917638        24.9702 
 174   0.0000       0.927156        25.2292 
 175   0.0000       0.950451        25.8631 
 176   0.0000       0.963044        26.2058 
 177   0.0000       0.966368        26.2962 
 178   0.0000       0.972976        26.4760 
 179   0.0000       0.990607        26.9558 
 180   0.0000       0.995739        27.0954 
 181   0.0000       1.008799        27.4508 
 182   0.0000       1.014580        27.6081 
 183   0.0000       1.043010        28.3817 
 184   0.0000       1.061071        28.8732 
 185   0.0000       1.075546        29.2671 
 186   0.0000       1.099100        29.9080 
 187   0.0000       1.109300        30.1856 
 188   0.0000       1.123065        30.5602 
 189   0.0000       1.130426        30.7605 
 190   0.0000       1.135365        30.8949 
 191   0.0000       1.148147        31.2427 
 192   0.0000       1.174769        31.9671 
 193   0.0000       1.193389        32.4738 
 194   0.0000       1.199368        32.6365 
 195   0.0000       1.202180        32.7130 
 196   0.0000       1.222713        33.2717 
 197   0.0000       1.230231        33.4763 
 198   0.0000       1.231021        33.4978 
 199   0.0000       1.247991        33.9596 
 200   0.0000       1.269391        34.5419 
 201   0.0000       1.271648        34.6033 
 202   0.0000       1.287769        35.0420 
 203   0.0000       1.296186        35.2710 
 204   0.0000       1.299647        35.3652 
 205   0.0000       1.321386        35.9567 
 206   0.0000       1.334032        36.3009 
 207   0.0000       1.347155        36.6579 
 208   0.0000       1.348845        36.7039 
 209   0.0000       1.362471        37.0747 
 210   0.0000       1.369202        37.2579 
 211   0.0000       1.377472        37.4829 
 212   0.0000       1.403704        38.1967 
 213   0.0000       1.417330        38.5675 
 214   0.0000       1.423954        38.7478 
 215   0.0000       1.432304        38.9750 
 216   0.0000       1.444947        39.3190 
 217   0.0000       1.469712        39.9929 
 218   0.0000       1.480784        40.2942 
 219   0.0000       1.494284        40.6615 
 220   0.0000       1.500941        40.8427 
 221   0.0000       1.513753        41.1913 
 222   0.0000       1.522309        41.4241 
 223   0.0000       1.531192        41.6659 
 224   0.0000       1.534623        41.7592 
 225   0.0000       1.537880        41.8478 
 226   0.0000       1.542742        41.9801 
 227   0.0000       1.561013        42.4773 
 228   0.0000       1.580028        42.9948 
 229   0.0000       1.595375        43.4124 
 230   0.0000       1.602788        43.6141 
 231   0.0000       1.610202        43.8158 
 232   0.0000       1.613571        43.9075 
 233   0.0000       1.622505        44.1506 
 234   0.0000       1.638997        44.5994 
 235   0.0000       1.649448        44.8838 
 236   0.0000       1.668466        45.4013 
 237   0.0000       1.673659        45.5426 
 238   0.0000       1.681414        45.7536 
 239   0.0000       1.684504        45.8377 
 240   0.0000       1.694837        46.1189 
 241   0.0000       1.705074        46.3974 
 242   0.0000       1.710023        46.5321 
 243   0.0000       1.724313        46.9209 
 244   0.0000       1.732673        47.1484 
 245   0.0000       1.734257        47.1915 
 246   0.0000       1.743060        47.4311 
 247   0.0000       1.746462        47.5237 
 248   0.0000       1.753454        47.7139 
 249   0.0000       1.756170        47.7878 
 250   0.0000       1.768169        48.1143 
 251   0.0000       1.770595        48.1803 
 252   0.0000       1.773220        48.2518 
 253   0.0000       1.775530        48.3146 
 254   0.0000       1.782490        48.5040 
 255   0.0000       1.784361        48.5549 
 256   0.0000       1.793873        48.8138 
 257   0.0000       1.796862        48.8951 
 258   0.0000       1.810995        49.2797 
 259   0.0000       1.816596        49.4321 
 260   0.0000       1.824387        49.6441 
 261   0.0000       1.828386        49.7529 
 262   0.0000       1.838372        50.0246 
 263   0.0000       1.842035        50.1243 
 264   0.0000       1.856094        50.5069 
 265   0.0000       1.862478        50.6806 
 266   0.0000       1.871559        50.9277 
 267   0.0000       1.875383        51.0318 
 268   0.0000       1.878784        51.1243 
 269   0.0000       1.894401        51.5493 
 270   0.0000       1.907481        51.9052 
 271   0.0000       1.923944        52.3532 
 272   0.0000       1.940449        52.8023 
 273   0.0000       1.946427        52.9650 
 274   0.0000       1.950767        53.0831 
 275   0.0000       1.963706        53.4351 
 276   0.0000       1.970368        53.6164 
 277   0.0000       1.992125        54.2085 
 278   0.0000       2.002873        54.5009 
 279   0.0000       2.014796        54.8254 
 280   0.0000       2.023487        55.0619 
 281   0.0000       2.045417        55.6586 
 282   0.0000       2.052490        55.8511 
 283   0.0000       2.062904        56.1345 
 284   0.0000       2.070749        56.3479 
 285   0.0000       2.079525        56.5868 
 286   0.0000       2.103518        57.2396 
 287   0.0000       2.120358        57.6979 
 288   0.0000       2.127801        57.9004 
 289   0.0000       2.151029        58.5325 
 290   0.0000       2.151722        58.5513 
 291   0.0000       2.160166        58.7811 
 292   0.0000       2.169628        59.0386 
 293   0.0000       2.181362        59.3579 
 294   0.0000       2.189290        59.5736 
 295   0.0000       2.203141        59.9505 
 296   0.0000       2.207421        60.0670 
 297   0.0000       2.212142        60.1954 
 298   0.0000       2.216634        60.3177 
 299   0.0000       2.238297        60.9072 
 300   0.0000       2.248370        61.1813 
 301   0.0000       2.262249        61.5589 
 302   0.0000       2.279704        62.0339 
 303   0.0000       2.297259        62.5116 
 304   0.0000       2.300939        62.6117 
 305   0.0000       2.327433        63.3327 
 306   0.0000       2.334179        63.5162 
 307   0.0000       2.345585        63.8266 
 308   0.0000       2.352197        64.0065 
 309   0.0000       2.364578        64.3434 
 310   0.0000       2.378028        64.7094 
 311   0.0000       2.396651        65.2162 
 312   0.0000       2.408697        65.5440 
 313   0.0000       2.435602        66.2761 
 314   0.0000       2.457480        66.8714 
 315   0.0000       2.464442        67.0609 
 316   0.0000       2.498578        67.9898 
 317   0.0000       2.501355        68.0653 
 318   0.0000       2.514684        68.4280 
 319   0.0000       2.521383        68.6103 
 320   0.0000       2.539392        69.1004 
 321   0.0000       2.542926        69.1965 
 322   0.0000       2.552045        69.4447 
 323   0.0000       2.555008        69.5253 
 324   0.0000       2.564686        69.7886 
 325   0.0000       2.578207        70.1566 
 326   0.0000       2.596658        70.6587 
 327   0.0000       2.598316        70.7038 
 328   0.0000       2.604119        70.8617 
 329   0.0000       2.616051        71.1864 
 330   0.0000       2.626804        71.4790 
 331   0.0000       2.631866        71.6167 
 332   0.0000       2.639005        71.8110 
 333   0.0000       2.684415        73.0466 
 334   0.0000       2.687219        73.1229 
 335   0.0000       2.715638        73.8963 
 336   0.0000       2.743829        74.6634 
 337   0.0000       2.757646        75.0394 
 338   0.0000       2.764174        75.2170 
 339   0.0000       2.769606        75.3648 
 340   0.0000       2.816234        76.6336 
 341   0.0000       2.823397        76.8285 
 342   0.0000       2.848381        77.5084 
 343   0.0000       2.877381        78.2975 
 344   0.0000       2.969221        80.7966 
 345   0.0000       3.000983        81.6609 
 346   0.0000       3.016866        82.0931 
 347   0.0000       3.024745        82.3075 
 348   0.0000       3.055216        83.1367 
 349   0.0000       3.067108        83.4603 
 350   0.0000       3.124892        85.0326 
 351   0.0000       3.137673        85.3804 
 352   0.0000       3.175564        86.4115 
 353   0.0000       3.226421        87.7954 
 354   0.0000       3.258057        88.6562 
 355   0.0000       3.334804        90.7446 
 356   0.0000       3.357863        91.3721 
 357   0.0000       3.434357        93.4536 
 358   0.0000       3.484167        94.8090 
 359   0.0000       3.500449        95.2521 
 360   0.0000       3.511211        95.5449 
 361   0.0000       3.565457        97.0210 
 362   0.0000       3.595279        97.8325 
 363   0.0000       3.628747        98.7432 
 364   0.0000       3.712277       101.0162 
 365   0.0000       3.854197       104.8780 

                    ********************************
                    * MULLIKEN POPULATION ANALYSIS *
                    ********************************

-----------------------
MULLIKEN ATOMIC CHARGES
-----------------------
   0 C :   -0.106348
   1 C :    0.155506
   2 C :   -0.233944
   3 C :    0.012011
   4 C :    0.145770
   5 O :   -0.290161
   6 C :   -0.008749
   7 H :    0.016556
   8 C :    0.156487
   9 O :   -0.165442
  10 C :    0.061127
  11 H :    0.062806
  12 H :    0.038753
  13 H :    0.052170
  14 O :   -0.251585
  15 O :   -0.302093
  16 H :    0.057454
  17 H :    0.038022
  18 H :    0.050494
  19 C :    0.079117
  20 H :    0.060258
  21 H :    0.047672
  22 H :    0.048122
  23 H :    0.160740
  24 C :    0.263025
  25 O :   -0.223606
  26 C :   -0.172245
  27 H :    0.024540
  28 C :   -0.015901
  29 C :   -0.042372
  30 H :    0.030310
  31 C :   -0.053502
  32 H :    0.043605
  33 H :    0.032296
  34 H :    0.039491
  35 H :    0.040757
  36 H :    0.056494
  37 H :    0.053624
  38 H :    0.038739
Sum of atomic charges:   -0.0000000

--------------------------------
MULLIKEN REDUCED ORBITAL CHARGES
--------------------------------
  0 C s       :     3.161208  s :     3.161208
      pz      :     1.092026  p :     2.806868
      px      :     0.757794
      py      :     0.957048
      dz2     :     0.022720  d :     0.138272
      dxz     :     0.025777
      dyz     :     0.025029
      dx2y2   :     0.032823
      dxy     :     0.031922
  1 C s       :     3.133343  s :     3.133343
      pz      :     0.817730  p :     2.538714
      px      :     0.875107
      py      :     0.845877
      dz2     :     0.018716  d :     0.172437
      dxz     :     0.031653
      dyz     :     0.035359
      dx2y2   :     0.058447
      dxy     :     0.028262
  2 C s       :     3.145466  s :     3.145466
      pz      :     1.082981  p :     3.014272
      px      :     0.978978
      py      :     0.952314
[...]
   181. D(C  31,C  29,C  26,C  28)     63.94 -0.000001   -0.06     63.88   
   182. D(C  31,C  29,C  26,H  27)    -57.58 -0.000048   -0.01    -57.59   
   183. D(C  31,C  29,C  26,C  24)   -175.19 -0.000000   -0.05   -175.24   
   184. D(H  30,C  29,C  26,C  28)   -173.80  0.000027   -0.08   -173.88   
   185. D(H  30,C  29,C  26,H  27)     64.69 -0.000019   -0.04     64.64   
   186. D(H  32,C  29,C  26,C  28)    -59.38  0.000016   -0.07    -59.45   
   187. D(H  30,C  29,C  26,C  24)    -52.92  0.000028   -0.08    -53.00   
   188. D(H  35,C  31,C  29,H  32)    -61.49  0.000005    0.06    -61.44   
   189. D(H  35,C  31,C  29,C  26)    176.25 -0.000018    0.08    176.33   
   190. D(H  34,C  31,C  29,H  32)     58.34 -0.000022    0.08     58.42   
   191. D(H  34,C  31,C  29,H  30)    174.36 -0.000044    0.12    174.48   
   192. D(H  34,C  31,C  29,C  26)    -63.91 -0.000045    0.10    -63.81   
   193. D(H  33,C  31,C  29,H  32)    178.82  0.000030    0.04    178.86   
   194. D(H  35,C  31,C  29,H  30)     54.53 -0.000016    0.10     54.63   
   195. D(H  33,C  31,C  29,H  30)    -65.16  0.000009    0.08    -65.08   
   196. D(H  33,C  31,C  29,C  26)     56.57  0.000007    0.06     56.62   
    ----------------------------------------------------------------------------

         *************************************************************
         *                GEOMETRY OPTIMIZATION CYCLE   3            *
         *************************************************************
---------------------------------
CARTESIAN COORDINATES (ANGSTROEM)
---------------------------------
  C      0.567038   -0.113532    0.742455
  C      0.480113    1.066243   -0.247118
  C     -0.682659    1.135296   -1.128095
  C     -0.774755    2.368037   -1.990066
  C     -1.465253    0.012416   -1.237803
  O     -2.559455   -0.115064   -2.019897
  C     -1.191346   -1.249226   -0.569019
  H     -1.811532   -2.107451   -0.822023
  C     -0.183543   -1.343338    0.307309
  O      0.127328   -2.490897    0.934322
  C     -0.008512    0.388437    2.071810
  H      0.578099    1.257065    2.399766
  H      0.042941   -0.400343    2.835592
  H     -1.057401    0.686097    1.937443
  O      1.347436    1.924130   -0.182659
  O      1.931174   -0.442791    1.024656
  H      0.177330    2.905859   -1.899702
  H     -1.571575    3.061678   -1.680692
  H     -0.926532    2.115897   -3.049303
  C     -3.421962    0.989857   -2.243650
  H     -4.408081    0.557132   -2.455542
  H     -3.106546    1.598225   -3.102325
  H     -3.487696    1.623292   -1.345917
  H      0.953757   -2.340751    1.416398
  C      2.715603   -0.685383   -0.069432
  O      2.257334   -0.880312   -1.164145
  C      4.173932   -0.639523    0.314361
  H      4.258590   -1.125139    1.302385
  C      4.552413    0.840555    0.476889
  C      5.025972   -1.392136   -0.708255
  H      4.612635   -2.406339   -0.835392
  C      6.497423   -1.482621   -0.319003
  H      4.913868   -0.901417   -1.688529
  H      6.623473   -1.953645    0.669898
  H      6.974626   -0.491867   -0.276814
  H      7.058599   -2.085762   -1.047461
  H      3.850335    1.348379    1.151306
  H      4.505849    1.355428   -0.494740
  H      5.568352    0.942464    0.883362

----------------------------
CARTESIAN COORDINATES (A.U.)
----------------------------
  NO LB      ZA    FRAG     MASS         X           Y           Z
   0 C     6.0000    0    12.011    1.071546   -0.214545    1.403036
   1 C     6.0000    0    12.011    0.907282    2.014908   -0.466986
   2 C     6.0000    0    12.011   -1.290039    2.145399   -2.131791
   3 C     6.0000    0    12.011   -1.464076    4.474942   -3.760680
   4 C     6.0000    0    12.011   -2.768927    0.023462   -2.339108
   5 O     8.0000    0    15.999   -4.836669   -0.217439   -3.817052
   6 C     6.0000    0    12.011   -2.251318   -2.360696   -1.075291
   7 H     1.0000    0     1.008   -3.423299   -3.982506   -1.553399
   8 C     6.0000    0    12.011   -0.346845   -2.538541    0.580730
   9 O     8.0000    0    15.999    0.240615   -4.707112    1.765613
  10 C     6.0000    0    12.011   -0.016086    0.734039    3.915153
  11 H     1.0000    0     1.008    1.092449    2.375509    4.534901
  12 H     1.0000    0     1.008    0.081147   -0.756539    5.358492
  13 H     1.0000    0     1.008   -1.998198    1.296536    3.661237
  14 O     8.0000    0    15.999    2.546286    3.636080   -0.345175
  15 O     8.0000    0    15.999    3.649390   -0.836754    1.936319
  16 H     1.0000    0     1.008    0.335104    5.491278   -3.589916
  17 H     1.0000    0     1.008   -2.969847    5.785733   -3.176048
  18 H     1.0000    0     1.008   -1.750891    3.998466   -5.762348
  19 C     6.0000    0    12.011   -6.466571    1.870559   -4.239884
  20 H     1.0000    0     1.008   -8.330066    1.052827   -4.640303
  21 H     1.0000    0     1.008   -5.870521    3.020207   -5.862544
  22 H     1.0000    0     1.008   -6.590790    3.067577   -2.543414
  23 H     1.0000    0     1.008    1.802339   -4.423378    2.676604
  24 C     6.0000    0    12.011    5.131746   -1.295187   -0.131208
  25 O     8.0000    0    15.999    4.265742   -1.663549   -2.199915
  26 C     6.0000    0    12.011    7.887588   -1.208523    0.594057
  27 H     1.0000    0     1.008    8.047569   -2.126205    2.461152
  28 C     6.0000    0    12.011    8.602814    1.588418    0.901189
  29 C     6.0000    0    12.011    9.497711   -2.630756   -1.338407
  30 H     1.0000    0     1.008    8.716617   -4.547321   -1.578661
  31 C     6.0000    0    12.011   12.278350   -2.801748   -0.602829
  32 H     1.0000    0     1.008    9.285864   -1.703432   -3.190858
  33 H     1.0000    0     1.008   12.516549   -3.691854    1.265924
  34 H     1.0000    0     1.008   13.180132   -0.929494   -0.523103
  35 H     1.0000    0     1.008   13.338819   -3.941519   -1.979414
  36 H     1.0000    0     1.008    7.276078    2.548068    2.175652
  37 H     1.0000    0     1.008    8.514821    2.561387   -0.934924
  38 H     1.0000    0     1.008   10.522660    1.781000    1.669311

--------------------------------
INTERNAL COORDINATES (ANGSTROEM)
--------------------------------
 C      0   0   0     0.000000000000     0.00000000     0.00000000
 C      1   0   0     1.542297304640     0.00000000     0.00000000
 C      2   1   0     1.460454396956   117.90980374     0.00000000
 C      3   2   1     1.507025854444   115.61708511   174.99045053
 C      3   2   1     1.373080105848   117.60105629   345.75529867
 O      5   3   2     1.350999768170   125.80560420   181.30453307
 C      5   3   2     1.453972649723   124.43592291   358.04804457
 H      7   5   3     1.088665152440   118.02350305   187.24047143
 C      7   5   3     1.338833985243   120.25657388     5.78793548
 O      9   7   5     1.344126662086   122.64585502   181.23648185
 C      1   2   3     1.533106662181   106.54288720   264.89345196
 H     11   1   2     1.098263914633   108.50387778   301.40336674
 H     11   1   2     1.099174491296   110.48649298   181.25599132
 H     11   1   2     1.098555156793   109.94398308    61.01373997
 O      2   1   3     1.221628184893   117.60112064   175.54779070
 O      1   2   3     1.431404021045   110.86487386   150.94819842
 H      4   3   2     1.097216414921   107.50700969     9.78539487
 H      4   3   2     1.100804926428   113.51095529   251.37335574
 H      4   3   2     1.099360739593   111.83414749   128.36201335
 C      6   5   3     1.419449063960   120.65978600   325.65222791
 H     20   6   5     1.097533704841   105.63322766   206.82390957
 H     20   6   5     1.098599386201   112.32199107    88.12798793
 H     20   6   5     1.100674733432   110.83602839   325.11437104
 H     10   9   7     0.968465377274   107.28961462   172.41611978
 C     16   1   2     1.367921548794   115.44259244   306.18834764
 O     25  16   1     1.202665352462   122.56531828   345.42441060
 C     25  16   1     1.508682307090   110.20926190   164.33587129
 H     27  25  16     1.104165644878   106.76074357    39.50135711
 C     27  25  16     1.536324616811   107.11733043   283.92731991
 C     27  25  16     1.529098936332   110.70336176   159.01072432
 H     30  27  25     1.102550926506   108.72188021   306.99877411
 C     30  27  25     1.524752576811   113.34197206   184.76486177
 H     30  27  25     1.101957538916   108.60567141    61.43553662
 H     32  30  27     1.102577886394   111.38580576    56.62380192
 H     32  30  27     1.100498297035   112.01357084   296.18661297
 H     32  30  27     1.099703401602   110.84863670   176.33266186
 H     29  27  25     1.098015534201   110.67195740    51.90623295
 H     29  27  25     1.100602243287   110.29584555   293.21606258
 H     29  27  25     1.098971121294   110.86742119   172.63958151

---------------------------
INTERNAL COORDINATES (A.U.)
---------------------------
 C      0   0   0     0.000000000000     0.00000000     0.00000000
 C      1   0   0     2.914519522854     0.00000000     0.00000000
 C      2   1   0     2.759858841327   117.90980374     0.00000000
 C      3   2   1     2.847866141638   115.61708511   174.99045053
 C      3   2   1     2.594745359989   117.60105629   345.75529867
 O      5   3   2     2.553019568831   125.80560420   181.30453307
 C      5   3   2     2.747610114189   124.43592291   358.04804457
 H      7   5   3     2.057278989656   118.02350305   187.24047143
 C      7   5   3     2.530029570896   120.25657388     5.78793548
 O      9   7   5     2.540031280645   122.64585502   181.23648185
 C      1   2   3     2.897151725612   106.54288720   264.89345196
 H     11   1   2     2.075418021424   108.50387778   301.40336674
 H     11   1   2     2.077138761941   110.48649298   181.25599132
 H     11   1   2     2.075968389347   109.94398308    61.01373997
 O      2   1   3     2.308542706927   117.60112064   175.54779070
 O      1   2   3     2.704961586769   110.86487386   150.94819842
 H      4   3   2     2.073438533844   107.50700969     9.78539487
 H      4   3   2     2.080219837821   113.51095529   251.37335574
 H      4   3   2     2.077490720217   111.83414749   128.36201335
 C      6   5   3     2.682369991935   120.65978600   325.65222791
 H     20   6   5     2.074038124897   105.63322766   206.82390957
 H     20   6   5     2.076051970814   112.32199107    88.12798793
 H     20   6   5     2.079973808712   110.83602839   325.11437104
 H     10   9   7     1.830134333233   107.28961462   172.41611978
 C     16   1   2     2.584997099910   115.44259244   306.18834764
 O     25  16   1     2.272708146909   122.56531828   345.42441060
 C     25  16   1     2.850996383493   110.20926190   164.33587129
 H     27  25  16     2.086570675304   106.76074357    39.50135711
 C     27  25  16     2.903232778575   107.11733043   283.92731991
 C     27  25  16     2.889578221338   110.70336176   159.01072432
 H     30  27  25     2.083519299798   108.72188021   306.99877411
 C     30  27  25     2.881364792164   113.34197206   184.76486177
 H     30  27  25     2.082397959761   108.60567141    61.43553662
 H     32  30  27     2.083570246602   111.38580576    56.62380192
 H     32  30  27     2.079640392244   112.01357084   296.18661297
 H     32  30  27     2.078138257570   110.84863670   176.33266186
 H     29  27  25     2.074948650431   110.67195740    51.90623295
 H     29  27  25     2.079836822191   110.29584555   293.21606258
 H     29  27  25     2.076754448335   110.86742119   172.63958151

------------------------------------------------------------------------------
                   ___                                                        
                  /   \      - P O W E R E D   B Y -                         
                 /     \                                                     
                 |  |  |   _    _      __       _____    __    __             
                 |  |  |  | |  | |    /  \     |  _  \  |  |  /  |          
                  \  \/   | |  | |   /    \    | | | |  |  | /  /          
                 / \  \   | |__| |  /  /\  \   | |_| |  |  |/  /          
                |  |  |   |  __  | /  /__\  \  |    /   |      \           
                |  |  |   | |  | | |   __   |  |    \   |  |\   \          
                \     /   | |  | | |  |  |  |  | |\  \  |  | \   \       
                 \___/    |_|  |_| |__|  |__|  |_| \__\ |__|  \__/        
                                                                              
                      - O R C A' S   B I G   F R I E N D -                    
                                      &                                       
                       - I N T E G R A L  F E E D E R -                       
                                                                              
 v1 FN, 2020, v2 2021                                                         
------------------------------------------------------------------------------


Reading SHARK input file wasabidienone_opt_iroot_0.SHARKINP.tmp ... ok
----------------------
SHARK INTEGRAL PACKAGE
----------------------

Number of atoms                             ...     39
Number of basis functions                   ...    480
Number of shells                            ...    288
Maximum angular momentum                    ...      2
Integral batch strategy                     ... SHARK/LIBINT Hybrid
RI-J (if used) integral strategy            ... SPLIT-RIJ (Revised 2003 algorithm where possible)
Printlevel                                  ...      1
Contraction scheme used                     ... PARTIAL GENERAL contraction
Coulomb Range Separation                    ... NOT USED
Exchange Range Separation                   ... Long Range
   Mu parameter                             ...  0.250000
   Scaling (regular/separated)              ...  0.195728  0.804272
Finite Nucleus Model                        ... NOT USED
Auxiliary Coulomb fitting basis             ... AVAILABLE
   # of basis functions in Aux-J            ...   1151
   # of shells in Aux-J                     ...    385
   Maximum angular momentum in Aux-J        ...      4
Auxiliary J/K fitting basis                 ... NOT available
Auxiliary Correlation fitting basis         ... NOT available
Auxiliary 'external' fitting basis          ... NOT available
Integral threshold                          ...     2.500000e-11
Primitive cut-off                           ...     2.500000e-12
Primitive pair pre-selection threshold      ...     2.500000e-12

Calculating pre-screening integrals         ... done (  0.1 sec) Dimension = 288
Calculating pre-screening integrals (ORCA)  ... done (  0.5 sec) Dimension = 174
Organizing shell pair data                  ... done (  0.2 sec)
Shell pair information
Total number of shell pairs                 ...     41616
Shell pairs after pre-screening             ...     22358
Total number of primitive shell pairs       ...     67278
Primitive shell pairs kept                  ...     30453
          la=0 lb=0:   9874 shell pairs
          la=1 lb=0:   7780 shell pairs
          la=1 lb=1:   1306 shell pairs
          la=2 lb=0:   2423 shell pairs
          la=2 lb=1:    827 shell pairs
          la=2 lb=2:    148 shell pairs

Calculating one electron integrals          ... done (  0.2 sec)
Calculating RI/J V-Matrix + Cholesky decomp.... done (  0.1 sec)
Calculating Nuclear repulsion               ... done (  0.0 sec) ENN=   1572.683197602640 Eh

SHARK setup successfully completed in   1.4 seconds

Maximum memory used throughout the entire GTOINT-calculation: 82.2 MB

Diagonalization of the overlap matrix:
Smallest eigenvalue                        ... 4.129e-04
Time for diagonalization                   ...    0.041 sec
Threshold for overlap eigenvalues          ... 1.000e-08
Number of eigenvalues below threshold      ... 0
Time for construction of square roots      ...    0.015 sec
Total time needed                          ...    0.057 sec

-------------------
DFT GRID GENERATION
-------------------

General Integration Accuracy     IntAcc      ... 4.388
Radial Grid Type                 RadialGrid  ... OptM3 with GC (2021)
Angular Grid (max. ang.)         AngularGrid ... 4 (Lebedev-302)
Angular grid pruning method      GridPruning ... 4 (adaptive)
Weight generation scheme         WeightScheme... Becke
Basis function cutoff            BFCut       ... 1.0000e-11
Integration weight cutoff        WCut        ... 1.0000e-14
Angular grids for H and He will be reduced by one unit
Partially contracted basis set               ... off
Rotationally invariant grid construction     ... off

Total number of grid points                  ...   177280
Total number of batches                      ...     2793
Average number of points per batch           ...       63
Average number of grid points per atom       ...     4546
Time for grid setup =    6.442 sec

--------------------
COSX GRID GENERATION
--------------------

GRIDX 1
-------
General Integration Accuracy     IntAcc      ... 3.816
Radial Grid Type                 RadialGrid  ... OptM3 with GC (2021)
Angular Grid (max. ang.)         AngularGrid ... 1 (Lebedev-50)
Angular grid pruning method      GridPruning ... 4 (adaptive)
Weight generation scheme         WeightScheme... Becke
Basis function cutoff            BFCut       ... 1.0000e-11
Integration weight cutoff        WCut        ... 1.0000e-14
Angular grids for H and He will be reduced by one unit
Partially contracted basis set               ... on
Rotationally invariant grid construction     ... off

Total number of grid points                  ...    22568
Total number of batches                      ...      376
Average number of points per batch           ...       60
Average number of grid points per atom       ...      579
UseSFitting                                  ... on

GRIDX 2
-------
General Integration Accuracy     IntAcc      ... 4.020
Radial Grid Type                 RadialGrid  ... OptM3 with GC (2021)
Angular Grid (max. ang.)         AngularGrid ... 2 (Lebedev-110)
Angular grid pruning method      GridPruning ... 4 (adaptive)
Weight generation scheme         WeightScheme... Becke
Basis function cutoff            BFCut       ... 1.0000e-11
Integration weight cutoff        WCut        ... 1.0000e-14
Angular grids for H and He will be reduced by one unit
Partially contracted basis set               ... on
Rotationally invariant grid construction     ... off

Total number of grid points                  ...    48090
Total number of batches                      ...      771
Average number of points per batch           ...       62
Average number of grid points per atom       ...     1233
UseSFitting                                  ... on

GRIDX 3
-------
General Integration Accuracy     IntAcc      ... 4.338
Radial Grid Type                 RadialGrid  ... OptM3 with GC (2021)
Angular Grid (max. ang.)         AngularGrid ... 3 (Lebedev-194)
Angular grid pruning method      GridPruning ... 4 (adaptive)
Weight generation scheme         WeightScheme... Becke
Basis function cutoff            BFCut       ... 1.0000e-11
Integration weight cutoff        WCut        ... 1.0000e-14
Angular grids for H and He will be reduced by one unit
Partially contracted basis set               ... on
Rotationally invariant grid construction     ... off

Total number of grid points                  ...   104894
Total number of batches                      ...     1662
Average number of points per batch           ...       63
Average number of grid points per atom       ...     2690
UseSFitting                                  ... on

Time for X-Grid setup             =    8.951 sec

 re-compute Schwartz prescreening matrix in partically contracted basis (1) ...done (   0.185 sec)
--------------
SCF ITERATIONS
--------------
ITER       Energy         Delta-E        Max-DP      RMS-DP      [F,P]     Damp
               ***  Starting incremental Fock matrix formation  ***
