
                                 *****************
                                 * O   R   C   A *
                                 *****************

                                            #,                                       
                                            ###                                      
                                            ####                                     
                                            #####                                    
                                            ######                                   
                                           ########,                                 
                                     ,,################,,,,,                         
                               ,,#################################,,                 
                          ,,##########################################,,             
                       ,#########################################, ''#####,          
                    ,#############################################,,   '####,        
                  ,##################################################,,,,####,       
                ,###########''''           ''''###############################       
              ,#####''   ,,,,##########,,,,          '''####'''          '####       
            ,##' ,,,,###########################,,,                        '##       
           ' ,,###''''                  '''############,,,                           
         ,,##''                                '''############,,,,        ,,,,,,###''
      ,#''                                            '''#######################'''  
     '                                                          ''''####''''         
             ,#######,   #######,   ,#######,      ##                                
            ,#'     '#,  ##    ##  ,#'     '#,    #''#        ######   ,####,        
            ##       ##  ##   ,#'  ##            #'  '#       #        #'  '#        
            ##       ##  #######   ##           ,######,      #####,   #    #        
            '#,     ,#'  ##    ##  '#,     ,#' ,#      #,         ##   #,  ,#        
             '#######'   ##     ##  '#######'  #'      '#     #####' # '####'        



                  #######################################################
                  #                        -***-                        #
                  #          Department of theory and spectroscopy      #
                  #    Directorship and core code : Frank Neese         #
                  #        Max Planck Institute fuer Kohlenforschung    #
                  #                Kaiser Wilhelm Platz 1               #
                  #                 D-45470 Muelheim/Ruhr               #
                  #                      Germany                        #
                  #                                                     #
                  #                  All rights reserved                #
                  #                        -***-                        #
                  #######################################################


                         Program Version 5.0.3 -  RELEASE  -


 With contributions from (in alphabetic order):
   Daniel Aravena         : Magnetic Suceptibility
   Michael Atanasov       : Ab Initio Ligand Field Theory (pilot matlab implementation)
   Alexander A. Auer      : GIAO ZORA, VPT2 properties, NMR spectrum
   Ute Becker             : Parallelization
   Giovanni Bistoni       : ED, misc. LED, open-shell LED, HFLD
   Martin Brehm           : Molecular dynamics
   Dmytro Bykov           : SCF Hessian
   Vijay G. Chilkuri      : MRCI spin determinant printing, contributions to CSF-ICE
   Dipayan Datta          : RHF DLPNO-CCSD density
   Achintya Kumar Dutta   : EOM-CC, STEOM-CC
   Dmitry Ganyushin       : Spin-Orbit,Spin-Spin,Magnetic field MRCI
   Miquel Garcia          : C-PCM and meta-GGA Hessian, CC/C-PCM, Gaussian charge scheme
   Yang Guo               : DLPNO-NEVPT2, F12-NEVPT2, CIM, IAO-localization
   Andreas Hansen         : Spin unrestricted coupled pair/coupled cluster methods
   Benjamin Helmich-Paris : MC-RPA, TRAH-SCF, COSX integrals
   Lee Huntington         : MR-EOM, pCC
   Robert Izsak           : Overlap fitted RIJCOSX, COSX-SCS-MP3, EOM
   Marcus Kettner         : VPT2
   Christian Kollmar      : KDIIS, OOCD, Brueckner-CCSD(T), CCSD density, CASPT2, CASPT2-K
   Simone Kossmann        : Meta GGA functionals, TD-DFT gradient, OOMP2, MP2 Hessian
   Martin Krupicka        : Initial AUTO-CI
   Lucas Lang             : DCDCAS
   Marvin Lechner         : AUTO-CI (C++ implementation), FIC-MRCC
   Dagmar Lenk            : GEPOL surface, SMD
   Dimitrios Liakos       : Extrapolation schemes; Compound Job, initial MDCI parallelization
   Dimitrios Manganas     : Further ROCIS development; embedding schemes
   Dimitrios Pantazis     : SARC Basis sets
   Anastasios Papadopoulos: AUTO-CI, single reference methods and gradients
   Taras Petrenko         : DFT Hessian,TD-DFT gradient, ASA, ECA, R-Raman, ABS, FL, XAS/XES, NRVS
   Peter Pinski           : DLPNO-MP2, DLPNO-MP2 Gradient
   Christoph Reimann      : Effective Core Potentials
   Marius Retegan         : Local ZFS, SOC
   Christoph Riplinger    : Optimizer, TS searches, QM/MM, DLPNO-CCSD(T), (RO)-DLPNO pert. Triples
   Tobias Risthaus        : Range-separated hybrids, TD-DFT gradient, RPA, STAB
   Michael Roemelt        : Original ROCIS implementation
   Masaaki Saitow         : Open-shell DLPNO-CCSD energy and density
   Barbara Sandhoefer     : DKH picture change effects
   Avijit Sen             : IP-ROCIS
   Kantharuban Sivalingam : CASSCF convergence, NEVPT2, FIC-MRCI
   Bernardo de Souza      : ESD, SOC TD-DFT
   Georgi Stoychev        : AutoAux, RI-MP2 NMR, DLPNO-MP2 response
   Willem Van den Heuvel  : Paramagnetic NMR
   Boris Wezisla          : Elementary symmetry handling
   Frank Wennmohs         : Technical directorship


 We gratefully acknowledge several colleagues who have allowed us to
 interface, adapt or use parts of their codes:
   Stefan Grimme, W. Hujo, H. Kruse, P. Pracht,  : VdW corrections, initial TS optimization,
                  C. Bannwarth, S. Ehlert          DFT functionals, gCP, sTDA/sTD-DF
   Ed Valeev, F. Pavosevic, A. Kumar             : LibInt (2-el integral package), F12 methods
   Garnet Chan, S. Sharma, J. Yang, R. Olivares  : DMRG
   Ulf Ekstrom                                   : XCFun DFT Library
   Mihaly Kallay                                 : mrcc  (arbitrary order and MRCC methods)
   Jiri Pittner, Ondrej Demel                    : Mk-CCSD
   Frank Weinhold                                : gennbo (NPA and NBO analysis)
   Christopher J. Cramer and Donald G. Truhlar   : smd solvation model
   Lars Goerigk                                  : TD-DFT with DH, B97 family of functionals
   V. Asgeirsson, H. Jonsson                     : NEB implementation
   FAccTs GmbH                                   : IRC, NEB, NEB-TS, DLPNO-Multilevel, CI-OPT
                                                   MM, QMMM, 2- and 3-layer-ONIOM, Crystal-QMMM,
                                                   LR-CPCM, SF, NACMEs, symmetry and pop. for TD-DFT,
                                                   nearIR, NL-DFT gradient (VV10), updates on ESD,
                                                   ML-optimized integration grids
   S Lehtola, MJT Oliveira, MAL Marques          : LibXC Library
   Liviu Ungur et al                             : ANISO software


 Your calculation uses the libint2 library for the computation of 2-el integrals
 For citations please refer to: http://libint.valeyev.net

 Your ORCA version has been built with support for libXC version: 5.1.0
 For citations please refer to: https://tddft.org/programs/libxc/

 This ORCA versions uses:
   CBLAS   interface :  Fast vector & matrix operations
   LAPACKE interface :  Fast linear algebra routines
   SCALAPACK package :  Parallel linear algebra routines
   Shared memory     :  Shared parallel matrices
   BLAS/LAPACK       :  OpenBLAS 0.3.15  USE64BITINT DYNAMIC_ARCH NO_AFFINITY Prescott SINGLE_THREADED
        Core in use  :  Prescott
   Copyright (c) 2011-2014, The OpenBLAS Project


XCFun DFT library Copyright 2009-2010 Ulf Ekstrom and contributors.
See http://admol.org/xcfun for more information.
This is free software; see the source code for copying conditions.
There is ABSOLUTELY NO WARRANTY; not even for MERCHANTABILITY or FITNESS FOR A PARTICULAR PURPOSE.
For details see the documentation.
Scientific users of this library should cite U. Ekstrom, L. Visscher, R. Bast, A. J. Thorvaldsen and K. Ruud;
J.Chem.Theor.Comp. 2010, DOI: 10.1021/ct100117s
XCFun Version 0.99 

================================================================================

----- Orbital basis set information -----
Your calculation utilizes the basis: cc-pVDZ 
       H, B-Ne : Obtained from the ccRepo (grant-hill.group.shef.ac.uk/ccrepo) Feb. 2017
                 T. H. Dunning, Jr., J. Chem. Phys. 90, 1007 (1989)
            He : Obtained from the ccRepo (grant-hill.group.shef.ac.uk/ccrepo) Feb. 2017
                 D. E. Woon, T. H. Dunning, Jr., J. Chem. Phys. 100, 2975 (1994)
  Li-Be, Na-Mg : Obtained from the ccRepo (grant-hill.group.shef.ac.uk/ccrepo) Feb. 2017
                 B. P. Prascher, D. E. Woon, K. A. Peterson, T. H. Dunning, Jr., A. K. Wilson, Theor. Chem. Acc. 128, 69 (2011)
         Al-Ar : Obtained from the ccRepo (grant-hill.group.shef.ac.uk/ccrepo) Feb. 2017
                 D. E. Woon, T. H. Dunning, Jr., J. Chem. Phys. 98, 1358 (1993)
            Ca : Obtained from the Peterson Research Group Website (tyr0.chem.wsu.edu/~kipeters) Feb. 2017
                 J. Koput, K. A. Peterson, J. Phys. Chem. 106, 9595 (2002)
         Sc-Zn : Obtained from the ccRepo (grant-hill.group.shef.ac.uk/ccrepo) Feb. 2017
                 N. B. Balabanov, K. A. Peterson, J. Chem. Phys. 123, 064107 (2005)
                 N. B. Balabanov, K. A. Peterson, J. Chem. Phys. 125, 074110 (2006)
         Ga-Kr : Obtained from the ccRepo (grant-hill.group.shef.ac.uk/ccrepo) Feb. 2017
                 A. K. Wilson, D. E. Woon, K. A. Peterson, T. H. Dunning, Jr., J. Chem. Phys. 110, 7667 (1999)

----- AuxJ basis set information -----
Your calculation utilizes the auxiliary basis: def2/J
   F. Weigend, Phys. Chem. Chem. Phys. 8, 1057 (2006).

================================================================================
                                        WARNINGS
                       Please study these warnings very carefully!
================================================================================

INFO   : Checking CIS options ...

WARNING: CIS/ROCIS methods need fully converged wavefunctions
  ===> : Setting SCFConvForced true
         You can overwrite this default with %scf ConvForced false 


INFO   : the flag for use of the SHARK integral package has been found!

================================================================================
                                       INPUT FILE
================================================================================
NAME = /gpfs/scratch/uam77/uam121718/12824685/engrad_0.in
|  1> ! engrad CAM-B3LYP cc-pvdz 
|  2> ! NoAutostart
|  3> 
|  4> 
|  5> %moinp "tmp.gbw" 
|  6> %scf guess moread end
|  7> %tddft nroots 10 iroot 0 tda TRUE end
|  8> * xyz 0 1
|  9> C      -0.996378986507248      3.313883895363544     -0.050663796482191
| 10> C      -0.848861712308884      1.917410646997111     -0.091318893640195
| 11> C       0.165652343198674      1.032173442019721     -0.006764951296033
| 12> C       1.545604830081986      1.466235619693269      0.008242259288444
| 13> C       2.052635619091870      2.759853879356113      0.062075370115093
| 14> C       1.440572549053067      4.033545629503005      0.376973118556305
| 15> C       3.494015363320662      2.633166961249503     -0.018075344684650
| 16> C       3.786562665569289      1.255382939335911     -0.093006549827172
| 17> C       5.111377292204162      0.821540803893445     -0.143426160304525
| 18> C       4.567516945613101      3.532181233819845     -0.024452347366819
| 19> C       5.843332499275284      2.998438703428485     -0.101857827876597
| 20> N       6.120838760882215      1.681362886239270     -0.150037729507635
| 21> N       2.593506352630379      0.572499730481470     -0.083425837038812
| 22> H       1.309018162425826      4.664192714917957     -0.532001805296843
| 23> H      -1.086641817861689      3.739232639788797     -1.073763752241292
| 24> H      -1.892216929343477      1.532872863941168     -0.099973593784062
| 25> H      -0.049385499220384     -0.035154249358052      0.028029275710097
| 26> H       5.362260340785625     -0.244379484657599     -0.168490523711366
| 27> H       4.419368210955430      4.611298427893569      0.025058736509634
| 28> H       6.710254351985999      3.664345773576610     -0.120660772297837
| 29> H       2.482479885258996     -0.423188021762777     -0.209144814907864
| 30> *
| 31> 
| 32> %pal nprocs 64 end
| 33> 
| 34>                          ****END OF INPUT****
================================================================================

                     *******************************
                     * Energy+Gradient Calculation *
                     *******************************

---------------------------------
CARTESIAN COORDINATES (ANGSTROEM)
---------------------------------
  C     -0.996379    3.313884   -0.050664
  C     -0.848862    1.917411   -0.091319
  C      0.165652    1.032173   -0.006765
  C      1.545605    1.466236    0.008242
  C      2.052636    2.759854    0.062075
  C      1.440573    4.033546    0.376973
  C      3.494015    2.633167   -0.018075
  C      3.786563    1.255383   -0.093007
  C      5.111377    0.821541   -0.143426
  C      4.567517    3.532181   -0.024452
  C      5.843332    2.998439   -0.101858
  N      6.120839    1.681363   -0.150038
  N      2.593506    0.572500   -0.083426
  H      1.309018    4.664193   -0.532002
  H     -1.086642    3.739233   -1.073764
  H     -1.892217    1.532873   -0.099974
  H     -0.049385   -0.035154    0.028029
  H      5.362260   -0.244379   -0.168491
  H      4.419368    4.611298    0.025059
  H      6.710254    3.664346   -0.120661
  H      2.482480   -0.423188   -0.209145

----------------------------
CARTESIAN COORDINATES (A.U.)
----------------------------
  NO LB      ZA    FRAG     MASS         X           Y           Z
   0 C     6.0000    0    12.011   -1.882883    6.262333   -0.095741
   1 C     6.0000    0    12.011   -1.604116    3.623381   -0.172568
   2 C     6.0000    0    12.011    0.313038    1.950525   -0.012784
   3 C     6.0000    0    12.011    2.920770    2.770784    0.015576
   4 C     6.0000    0    12.011    3.878919    5.215368    0.117305
   5 C     6.0000    0    12.011    2.722288    7.622297    0.712376
   6 C     6.0000    0    12.011    6.602732    4.975964   -0.034157
   7 C     6.0000    0    12.011    7.155566    2.372330   -0.175757
   8 C     6.0000    0    12.011    9.659103    1.552487   -0.271036
   9 C     6.0000    0    12.011    8.631356    6.674855   -0.046208
  10 C     6.0000    0    12.011   11.042298    5.666228   -0.192483
  11 N     7.0000    0    14.007   11.566709    3.177315   -0.283530
  12 N     7.0000    0    14.007    4.901017    1.081868   -0.157652
  13 H     1.0000    0     1.008    2.473686    8.814047   -1.005338
  14 H     1.0000    0     1.008   -2.053455    7.066126   -2.029119
  15 H     1.0000    0     1.008   -3.575772    2.896710   -0.188923
  16 H     1.0000    0     1.008   -0.093325   -0.066432    0.052968
  17 H     1.0000    0     1.008   10.133204   -0.461810   -0.318401
  18 H     1.0000    0     1.008    8.351396    8.714091    0.047354
  19 H     1.0000    0     1.008   12.680543    6.924610   -0.228016
  20 H     1.0000    0     1.008    4.691207   -0.799709   -0.395226

--------------------------------
INTERNAL COORDINATES (ANGSTROEM)
--------------------------------
 C      0   0   0     0.000000000000     0.00000000     0.00000000
 C      1   0   0     1.404831561617     0.00000000     0.00000000
 C      2   1   0     1.349086004325   136.83805497     0.00000000
 C      3   2   1     1.446687269769   121.40497809   352.22294318
 C      4   3   2     1.390477049993   128.85593730     6.21811852
 C      5   4   3     1.447781913159   132.27851058    13.98383935
 C      5   4   3     1.449154677519   106.21341396   182.92665935
 C      7   5   4     1.410491907314   107.13520128   358.97381713
 C      8   7   5     1.394953379347   120.17852387   181.75524983
 C      7   5   4     1.400240327813   134.96427226   179.56334783
 C     10   7   5     1.385127439670   117.32279069   179.24927018
 N      9   8   7     1.326027972134   121.43337467   358.61268485
 N      8   7   5     1.374701652300   107.74964954     0.98607128
 H      6   5   4     1.114117460224   111.74336861   252.84025813
 H      1   2   3     1.111666520402   111.23772785    99.53174869
 H      2   1   3     1.111995647179   104.20850000   173.00197247
 H      3   2   1     1.089330212877   119.76712916   173.66756426
 H      9   8   7     1.095334007471   121.40030797   177.95321656
 H     10   7   5     1.090363844573   122.07625649   359.01365730
 H     11  10   7     1.093315725442   119.77631421   179.33503797
 H     13   8   7     1.009715919367   125.76130684   174.20805725

---------------------------
INTERNAL COORDINATES (A.U.)
---------------------------
 C      0   0   0     0.000000000000     0.00000000     0.00000000
 C      1   0   0     2.654746915745     0.00000000     0.00000000
 C      2   1   0     2.549403079280   136.83805497     0.00000000
 C      3   2   1     2.733842741294   121.40497809   352.22294318
 C      4   3   2     2.627620819990   128.85593730     6.21811852
 C      5   4   3     2.735911317515   132.27851058    13.98383935
 C      5   4   3     2.738505466202   106.21341396   182.92665935
 C      7   5   4     2.665443418935   107.13520128   358.97381713
 C      8   7   5     2.636079856554   120.17852387   181.75524983
 C      7   5   4     2.646070741238   134.96427226   179.56334783
 C     10   7   5     2.617511521557   117.32279069   179.24927018
 N      9   8   7     2.505829713253   121.43337467   358.61268485
 N      8   7   5     2.597809638696   107.74964954     0.98607128
 H      6   5   4     2.105376880844   111.74336861   252.84025813
 H      1   2   3     2.100745275809   111.23772785    99.53174869
 H      2   1   3     2.101367235281   104.20850000   173.00197247
 H      3   2   1     2.058535771744   119.76712916   173.66756426
 H      9   8   7     2.069881299291   121.40030797   177.95321656
 H     10   7   5     2.060489052573   122.07625649   359.01365730
 H     11  10   7     2.066067298995   119.77631421   179.33503797
 H     13   8   7     1.908086560664   125.76130684   174.20805725

---------------------
BASIS SET INFORMATION
---------------------
There are 3 groups of distinct atoms

 Group   1 Type C   : 17s4p1d contracted to 3s2p1d pattern {881/31/1}
 Group   2 Type N   : 17s4p1d contracted to 3s2p1d pattern {881/31/1}
 Group   3 Type H   : 4s1p contracted to 2s1p pattern {31/1}

Atom   0C    basis set group =>   1
Atom   1C    basis set group =>   1
Atom   2C    basis set group =>   1
Atom   3C    basis set group =>   1
Atom   4C    basis set group =>   1
Atom   5C    basis set group =>   1
Atom   6C    basis set group =>   1
Atom   7C    basis set group =>   1
Atom   8C    basis set group =>   1
Atom   9C    basis set group =>   1
Atom  10C    basis set group =>   1
Atom  11N    basis set group =>   2
Atom  12N    basis set group =>   2
Atom  13H    basis set group =>   3
Atom  14H    basis set group =>   3
Atom  15H    basis set group =>   3
Atom  16H    basis set group =>   3
Atom  17H    basis set group =>   3
Atom  18H    basis set group =>   3
Atom  19H    basis set group =>   3
Atom  20H    basis set group =>   3
---------------------------------
AUXILIARY/J BASIS SET INFORMATION
---------------------------------
There are 3 groups of distinct atoms

 Group   1 Type C   : 12s5p4d2f1g contracted to 6s4p3d1f1g pattern {711111/2111/211/2/1}
 Group   2 Type N   : 12s5p4d2f1g contracted to 6s4p3d1f1g pattern {711111/2111/211/2/1}
 Group   3 Type H   : 5s2p1d contracted to 3s1p1d pattern {311/2/1}

Atom   0C    basis set group =>   1
Atom   1C    basis set group =>   1
Atom   2C    basis set group =>   1
Atom   3C    basis set group =>   1
Atom   4C    basis set group =>   1
Atom   5C    basis set group =>   1
Atom   6C    basis set group =>   1
Atom   7C    basis set group =>   1
Atom   8C    basis set group =>   1
Atom   9C    basis set group =>   1
Atom  10C    basis set group =>   1
Atom  11N    basis set group =>   2
Atom  12N    basis set group =>   2
Atom  13H    basis set group =>   3
Atom  14H    basis set group =>   3
Atom  15H    basis set group =>   3
Atom  16H    basis set group =>   3
Atom  17H    basis set group =>   3
Atom  18H    basis set group =>   3
Atom  19H    basis set group =>   3
Atom  20H    basis set group =>   3


           ************************************************************
           *        Program running with 64 parallel MPI-processes    *
           *              working on a common directory               *
           ************************************************************
------------------------------------------------------------------------------
                           ORCA GTO INTEGRAL CALCULATION
                           -- RI-GTO INTEGRALS CHOSEN --
------------------------------------------------------------------------------
------------------------------------------------------------------------------
                   ___                                                        
                  /   \      - P O W E R E D   B Y -                         
                 /     \                                                     
                 |  |  |   _    _      __       _____    __    __             
                 |  |  |  | |  | |    /  \     |  _  \  |  |  /  |          
                  \  \/   | |  | |   /    \    | | | |  |  | /  /          
                 / \  \   | |__| |  /  /\  \   | |_| |  |  |/  /          
                |  |  |   |  __  | /  /__\  \  |    /   |      \           
                |  |  |   | |  | | |   __   |  |    \   |  |\   \          
                \     /   | |  | | |  |  |  |  | |\  \  |  | \   \       
                 \___/    |_|  |_| |__|  |__|  |_| \__\ |__|  \__/        
                                                                              
                      - O R C A' S   B I G   F R I E N D -                    
                                      &                                       
                       - I N T E G R A L  F E E D E R -                       
                                                                              
 v1 FN, 2020, v2 2021                                                         
------------------------------------------------------------------------------


Reading SHARK input file /gpfs/scratch/uam77/uam121718/12824685/engrad_0.SHARKINP.tmp ... ok
----------------------
SHARK INTEGRAL PACKAGE
----------------------

Number of atoms                             ...     21
Number of basis functions                   ...    300
Number of shells                            ...    180
Maximum angular momentum                    ...      2
Integral batch strategy                     ... SHARK/LIBINT Hybrid
RI-J (if used) integral strategy            ... SPLIT-RIJ (Revised 2003 algorithm where possible)
Printlevel                                  ...      1
Contraction scheme used                     ... PARTIAL GENERAL contraction
Coulomb Range Separation                    ... NOT USED
Exchange Range Separation                   ... Long Range
   Mu parameter                             ...  0.330000
   Scaling (regular/separated)              ...  0.190000  0.460000
Finite Nucleus Model                        ... NOT USED
Auxiliary Coulomb fitting basis             ... AVAILABLE
   # of basis functions in Aux-J            ...    725
   # of shells in Aux-J                     ...    235
   Maximum angular momentum in Aux-J        ...      4
Auxiliary J/K fitting basis                 ... NOT available
Auxiliary Correlation fitting basis         ... NOT available
Auxiliary 'external' fitting basis          ... NOT available
Integral threshold                          ...     2.500000e-11
Primitive cut-off                           ...     2.500000e-12
Primitive pair pre-selection threshold      ...     2.500000e-12

Calculating pre-screening integrals         ... done (  0.0 sec) Dimension = 180
Calculating pre-screening integrals (ORCA)  ... done (  0.1 sec) Dimension = 102
Organizing shell pair data                  ... done (  0.0 sec)
Shell pair information
Total number of shell pairs                 ...     16290
Shell pairs after pre-screening             ...     10167
Total number of primitive shell pairs       ...     24816
Primitive shell pairs kept                  ...     13746
          la=0 lb=0:   4338 shell pairs
          la=1 lb=0:   3503 shell pairs
          la=1 lb=1:    534 shell pairs
          la=2 lb=0:   1313 shell pairs
          la=2 lb=1:    396 shell pairs
          la=2 lb=2:     83 shell pairs

Calculating one electron integrals          ... done (  0.0 sec)
Calculating RI/J V-Matrix + Cholesky decomp.... done (  0.0 sec)
Calculating Nuclear repulsion               ... done (  0.0 sec) ENN=    689.064145322894 Eh

SHARK setup successfully completed in   0.3 seconds

Maximum memory used throughout the entire GTOINT-calculation: 20.8 MB


           ************************************************************
           *        Program running with 64 parallel MPI-processes    *
           *              working on a common directory               *
           ************************************************************
-------------------------------------------------------------------------------
                                 ORCA SCF
-------------------------------------------------------------------------------

------------
SCF SETTINGS
------------
Hamiltonian:
 Density Functional     Method          .... DFT(GTOs)
 Exchange Functional    Exchange        .... WB88
 Correlation Functional Correlation     .... LYP
 LDA part of GGA corr.  LDAOpt          .... VWN-5
 Gradients option       PostSCFGGA      .... off
 Hybrid DFT is turned on
   Fraction HF Exchange ScalHFX         ....  0.190000
   Scaling of DF-GGA-X  ScalDFX         ....  0.350000
   Scaling of DF-GGA-C  ScalDFC         ....  0.810000
   Scaling of DF-LDA-C  ScalLDAC        ....  1.000000
   Perturbative correction              ....  0.000000
   Density functional embedding theory  .... OFF
 Long-range corrected/Screened/Range-Separated Hybrid DFT is turned on
   Amount of maximum screened exact exchange              ....  0.460000
   Range separation parameter mu (erf(mu*r12)/r12)        ....  0.330000
 RI-approximation to the Coulomb term is turned on
   Number of AuxJ basis functions       .... 725
   RIJ-COSX (HFX calculated with COS-X)).... on


General Settings:
 Integral files         IntName         .... /gpfs/scratch/uam77/uam121718/12824685/engrad_0
 Hartree-Fock type      HFTyp           .... RHF
 Total Charge           Charge          ....    0
 Multiplicity           Mult            ....    1
 Number of Electrons    NEL             ....   88
 Basis Dimension        Dim             ....  222
 Nuclear Repulsion      ENuc            ....    689.0641453229 Eh

Convergence Acceleration:
 DIIS                   CNVDIIS         .... on
   Start iteration      DIISMaxIt       ....    12
   Startup error        DIISStart       ....  0.200000
   # of expansion vecs  DIISMaxEq       ....     5
   Bias factor          DIISBfac        ....   1.050
   Max. coefficient     DIISMaxC        ....  10.000
 Trust-Rad. Augm. Hess. CNVTRAH         .... auto
   Auto Start mean grad. ratio tolernc. ....  1.125000
   Auto Start start iteration           ....     1
   Auto Start num. interpolation iter.  ....    10
   Max. Number of Micro iterations      ....    16
   Max. Number of Macro iterations      .... Maxiter - #DIIS iter
   Number of Davidson start vectors     ....     2
   Converg. threshold I  (grad. norm)   ....   1.000e-05
   Converg. threshold II (energy diff.) ....   1.000e-08
   Grad. Scal. Fac. for Micro threshold ....   0.100
   Minimum threshold for Micro iter.    ....   0.010
   NR start threshold (gradient norm)   ....   0.001
   Initial trust radius                 ....   0.400
   Minimum AH scaling param. (alpha)    ....   1.000
   Maximum AH scaling param. (alpha)    .... 1000.000
   Orbital update algorithm             .... Taylor
   White noise on init. David. guess    .... on
   Maximum white noise                  ....   0.010
   Quad. conv. algorithm                .... NR
 SOSCF                  CNVSOSCF        .... on
   Start iteration      SOSCFMaxIt      ....   150
   Startup grad/error   SOSCFStart      ....  0.003300
 Level Shifting         CNVShift        .... on
   Level shift para.    LevelShift      ....    0.2500
   Turn off err/grad.   ShiftErr        ....    0.0010
 Zerner damping         CNVZerner       .... off
 Static damping         CNVDamp         .... on
   Fraction old density DampFac         ....    0.7000
   Max. Damping (<1)    DampMax         ....    0.9800
   Min. Damping (>=0)   DampMin         ....    0.0000
   Turn off err/grad.   DampErr         ....    0.1000
 Fernandez-Rico         CNVRico         .... off

SCF Procedure:
 Maximum # iterations   MaxIter         ....   125
 SCF integral mode      SCFMode         .... Direct
   Integral package                     .... SHARK and LIBINT hybrid scheme
 Reset frequency        DirectResetFreq ....    20
 Integral Threshold     Thresh          ....  2.500e-11 Eh
 Primitive CutOff       TCut            ....  2.500e-12 Eh

Convergence Tolerance:
 Convergence Check Mode ConvCheckMode   .... Total+1el-Energy
 Convergence forced     ConvForced      .... 1
 Energy Change          TolE            ....  1.000e-08 Eh
 1-El. energy change                    ....  1.000e-05 Eh
 Orbital Gradient       TolG            ....  1.000e-05
 Orbital Rotation angle TolX            ....  1.000e-05
 DIIS Error             TolErr          ....  5.000e-07


Diagonalization of the overlap matrix:
Smallest eigenvalue                        ... 2.668e-04
Time for diagonalization                   ...    0.010 sec
Threshold for overlap eigenvalues          ... 1.000e-08
Number of eigenvalues below threshold      ... 0
Time for construction of square roots      ...    0.013 sec
Total time needed                          ...    0.024 sec

---------------------
INITIAL GUESS: MOREAD
---------------------
Guess MOs are being read from file: tmp.gbw
Input Geometry matches current geometry (good)
Input basis set matches current basis set (good)
MOs were renormalized
MOs were reorthogonalized (Cholesky)
                      ------------------
                      INITIAL GUESS DONE (   0.0 sec)
                      ------------------
-------------------
DFT GRID GENERATION
-------------------

General Integration Accuracy     IntAcc      ... 4.388
Radial Grid Type                 RadialGrid  ... OptM3 with GC (2021)
Angular Grid (max. ang.)         AngularGrid ... 4 (Lebedev-302)
Angular grid pruning method      GridPruning ... 4 (adaptive)
Weight generation scheme         WeightScheme... Becke
Basis function cutoff            BFCut       ... 1.0000e-11
Integration weight cutoff        WCut        ... 1.0000e-14
Angular grids for H and He will be reduced by one unit
Partially contracted basis set               ... off
Rotationally invariant grid construction     ... off

Total number of grid points                  ...   103696
Total number of batches                      ...     1628
Average number of points per batch           ...       63
Average number of grid points per atom       ...     4938
Time for grid setup =    0.518 sec

--------------------
COSX GRID GENERATION
--------------------

GRIDX 1
-------
General Integration Accuracy     IntAcc      ... 3.816
Radial Grid Type                 RadialGrid  ... OptM3 with GC (2021)
Angular Grid (max. ang.)         AngularGrid ... 1 (Lebedev-50)
Angular grid pruning method      GridPruning ... 4 (adaptive)
Weight generation scheme         WeightScheme... Becke
Basis function cutoff            BFCut       ... 1.0000e-11
Integration weight cutoff        WCut        ... 1.0000e-14
Angular grids for H and He will be reduced by one unit
Partially contracted basis set               ... on
Rotationally invariant grid construction     ... off

Total number of grid points                  ...    13242
Total number of batches                      ...      215
Average number of points per batch           ...       61
Average number of grid points per atom       ...      631
UseSFitting                                  ... on

GRIDX 2
-------
General Integration Accuracy     IntAcc      ... 4.020
Radial Grid Type                 RadialGrid  ... OptM3 with GC (2021)
Angular Grid (max. ang.)         AngularGrid ... 2 (Lebedev-110)
Angular grid pruning method      GridPruning ... 4 (adaptive)
Weight generation scheme         WeightScheme... Becke
Basis function cutoff            BFCut       ... 1.0000e-11
Integration weight cutoff        WCut        ... 1.0000e-14
Angular grids for H and He will be reduced by one unit
Partially contracted basis set               ... on
Rotationally invariant grid construction     ... off

Total number of grid points                  ...    29271
Total number of batches                      ...      469
Average number of points per batch           ...       62
Average number of grid points per atom       ...     1394
UseSFitting                                  ... on

GRIDX 3
-------
General Integration Accuracy     IntAcc      ... 4.338
Radial Grid Type                 RadialGrid  ... OptM3 with GC (2021)
Angular Grid (max. ang.)         AngularGrid ... 3 (Lebedev-194)
Angular grid pruning method      GridPruning ... 4 (adaptive)
Weight generation scheme         WeightScheme... Becke
Basis function cutoff            BFCut       ... 1.0000e-11
Integration weight cutoff        WCut        ... 1.0000e-14
Angular grids for H and He will be reduced by one unit
Partially contracted basis set               ... on
Rotationally invariant grid construction     ... off

Total number of grid points                  ...    64266
Total number of batches                      ...     1016
Average number of points per batch           ...       63
Average number of grid points per atom       ...     3060
UseSFitting                                  ... on

Time for X-Grid setup             =    0.979 sec

 re-compute Schwartz prescreening matrix in partically contracted basis (1) ...done (   0.066 sec)
--------------
SCF ITERATIONS
--------------
ITER       Energy         Delta-E        Max-DP      RMS-DP      [F,P]     Damp
               ***  Starting incremental Fock matrix formation  ***
                      *** Initiating the SOSCF procedure ***
                      *** Re-Reading the Fockian *** 
                      *** Removing any level shift *** 
ITER      Energy       Delta-E        Grad      Rot      Max-DP    RMS-DP
  0   -532.91721377 -532.9172137695  0.000028  0.000028  0.000247  0.000005
               *** Restarting incremental Fock matrix formation ***
  1   -532.91721387  -0.0000000957  0.000014  0.000086  0.000052  0.000002
  2   -532.91721388  -0.0000000185  0.000020  0.000189  0.000066  0.000002
  3   -532.91721389  -0.0000000097  0.000021  0.000065  0.000053  0.000001
  4   -532.91721390  -0.0000000104  0.000018  0.000168  0.000048  0.000002
  5   -532.91721391  -0.0000000066  0.000009  0.000191  0.000057  0.000001
  6   -532.91721393  -0.0000000170  0.000009  0.000634  0.000187  0.000005
  7   -532.91721394  -0.0000000152  0.000013  0.000551  0.000165  0.000004
  8   -532.91721395  -0.0000000108  0.000011  0.000341  0.000102  0.000003
  9   -532.91721396  -0.0000000054  0.000004  0.000040  0.000015  0.000000
                  ***Gradient check signals convergence***
              ***Rediagonalizing the Fockian in SOSCF/NRSCF***

               *****************************************************
               *                     SUCCESS                       *
               *           SCF CONVERGED AFTER  10 CYCLES          *
               *****************************************************

Old exchange energy                            =    -20.659972532 Eh
New exchange energy                            =    -20.659965169 Eh
Exchange energy change after final integration =      0.000007363 Eh
Total energy after final integration           =   -532.917206593 Eh
Final COS-X integration done in                =     0.814 sec

----------------
TOTAL SCF ENERGY
----------------

Total Energy       :         -532.91720659 Eh          -14501.41443 eV

Components:
Nuclear Repulsion  :          689.06414532 Eh           18750.38865 eV
Electronic Energy  :        -1221.98135192 Eh          -33251.80307 eV
One Electron Energy:        -2085.31328709 Eh          -56744.25936 eV
Two Electron Energy:          863.33193518 Eh           23492.45629 eV
Max COSX asymmetry :            0.00000119 Eh               0.00003 eV

Virial components:
Potential Energy   :        -1062.17587153 Eh          -28903.27488 eV
Kinetic Energy     :          529.25866493 Eh           14401.86045 eV
Virial Ratio       :            2.00691258


DFT components:
N(Alpha)           :       43.999987290484 electrons
N(Beta)            :       43.999987290484 electrons
N(Total)           :       87.999974580967 electrons
E(XC)              :      -55.305366629677 Eh       
DFET-embed. en.    :        0.000000000000 Eh       

---------------
SCF CONVERGENCE
---------------

  Last Energy change         ...    3.1858e-09  Tolerance :   1.0000e-08
  Last MAX-Density change    ...    6.2172e-15  Tolerance :   1.0000e-07
  Last RMS-Density change    ...    5.4974e-17  Tolerance :   5.0000e-09
  Last Orbital Gradient      ...    1.8175e-06  Tolerance :   1.0000e-05
  Last Orbital Rotation      ...    3.9425e-05  Tolerance :   1.0000e-05

             **** THE GBW FILE WAS UPDATED (/gpfs/scratch/uam77/uam121718/12824685/engrad_0.gbw) ****
             **** DENSITY /gpfs/scratch/uam77/uam121718/12824685/engrad_0.scfp WAS UPDATED ****
             **** ENERGY FILE WAS UPDATED (/gpfs/scratch/uam77/uam121718/12824685/engrad_0.en.tmp) ****
             **** THE GBW FILE WAS UPDATED (/gpfs/scratch/uam77/uam121718/12824685/engrad_0.gbw) ****
             **** DENSITY /gpfs/scratch/uam77/uam121718/12824685/engrad_0.scfp WAS UPDATED ****
----------------
ORBITAL ENERGIES
----------------

  NO   OCC          E(Eh)            E(eV) 
   0   2.0000     -14.473675      -393.8487 
   1   2.0000     -14.407751      -392.0548 
   2   2.0000     -10.345592      -281.5179 
   3   2.0000     -10.319754      -280.8148 
   4   2.0000     -10.307323      -280.4765 
   5   2.0000     -10.304753      -280.4066 
   6   2.0000     -10.294998      -280.1411 
   7   2.0000     -10.294623      -280.1309 
   8   2.0000     -10.291612      -280.0490 
   9   2.0000     -10.289437      -279.9898 
  10   2.0000     -10.286909      -279.9210 
  11   2.0000     -10.283504      -279.8284 
  12   2.0000     -10.280463      -279.7456 
  13   2.0000      -1.102718       -30.0065 
  14   2.0000      -1.028750       -27.9937 
  15   2.0000      -0.922815       -25.1111 
  16   2.0000      -0.910734       -24.7823 
  17   2.0000      -0.854246       -23.2452 
  18   2.0000      -0.847243       -23.0547 
  19   2.0000      -0.782928       -21.3046 
  20   2.0000      -0.753612       -20.5068 
  21   2.0000      -0.716065       -19.4851 
  22   2.0000      -0.700029       -19.0488 
  23   2.0000      -0.653655       -17.7868 
  24   2.0000      -0.623913       -16.9775 
  25   2.0000      -0.594477       -16.1765 
  26   2.0000      -0.590759       -16.0754 
  27   2.0000      -0.553722       -15.0675 
  28   2.0000      -0.542439       -14.7605 
  29   2.0000      -0.534364       -14.5408 
  30   2.0000      -0.517518       -14.0824 
  31   2.0000      -0.507809       -13.8182 
  32   2.0000      -0.489239       -13.3129 
  33   2.0000      -0.465355       -12.6630 
  34   2.0000      -0.459544       -12.5048 
  35   2.0000      -0.446014       -12.1366 
  36   2.0000      -0.434414       -11.8210 
  37   2.0000      -0.393457       -10.7065 
  38   2.0000      -0.374678       -10.1955 
  39   2.0000      -0.328194        -8.9306 
  40   2.0000      -0.316599        -8.6151 
  41   2.0000      -0.311947        -8.4885 
  42   2.0000      -0.270737        -7.3671 
  43   2.0000      -0.223266        -6.0754 
  44   0.0000      -0.090353        -2.4586 
  45   0.0000      -0.005477        -0.1490 
  46   0.0000       0.010956         0.2981 
  47   0.0000       0.045503         1.2382 
  48   0.0000       0.058957         1.6043 
  49   0.0000       0.079374         2.1599 
  50   0.0000       0.110082         2.9955 
  51   0.0000       0.126722         3.4483 
  52   0.0000       0.142644         3.8815 
  53   0.0000       0.145997         3.9728 
  54   0.0000       0.150866         4.1053 
  55   0.0000       0.171046         4.6544 
  56   0.0000       0.181593         4.9414 
  57   0.0000       0.206816         5.6278 
  58   0.0000       0.221183         6.0187 
  59   0.0000       0.239488         6.5168 
  60   0.0000       0.266499         7.2518 
  61   0.0000       0.281240         7.6529 
  62   0.0000       0.289275         7.8716 
  63   0.0000       0.324533         8.8310 
  64   0.0000       0.341403         9.2900 
  65   0.0000       0.357235         9.7209 
  66   0.0000       0.370657        10.0861 
  67   0.0000       0.396967        10.8020 
  68   0.0000       0.414631        11.2827 
  69   0.0000       0.420110        11.4318 
  70   0.0000       0.440382        11.9834 
  71   0.0000       0.454182        12.3589 
  72   0.0000       0.482923        13.1410 
  73   0.0000       0.488237        13.2856 
  74   0.0000       0.501343        13.6422 
  75   0.0000       0.510151        13.8819 
  76   0.0000       0.515997        14.0410 
  77   0.0000       0.524080        14.2609 
  78   0.0000       0.537276        14.6200 
  79   0.0000       0.550591        14.9823 
  80   0.0000       0.552604        15.0371 
  81   0.0000       0.562810        15.3149 
  82   0.0000       0.565916        15.3994 
  83   0.0000       0.568848        15.4792 
  84   0.0000       0.579693        15.7742 
  85   0.0000       0.592777        16.1303 
  86   0.0000       0.601948        16.3798 
  87   0.0000       0.614453        16.7201 
  88   0.0000       0.617206        16.7950 
  89   0.0000       0.621413        16.9095 
  90   0.0000       0.632420        17.2090 
  91   0.0000       0.634689        17.2708 
  92   0.0000       0.661422        17.9982 
  93   0.0000       0.672898        18.3105 
  94   0.0000       0.688411        18.7326 
  95   0.0000       0.692992        18.8573 
  96   0.0000       0.695938        18.9374 
  97   0.0000       0.706731        19.2311 
  98   0.0000       0.716444        19.4954 
  99   0.0000       0.725541        19.7430 
 100   0.0000       0.733856        19.9692 
 101   0.0000       0.743311        20.2265 
 102   0.0000       0.764025        20.7902 
 103   0.0000       0.768668        20.9165 
 104   0.0000       0.778062        21.1721 
 105   0.0000       0.785378        21.3712 
 106   0.0000       0.828874        22.5548 
 107   0.0000       0.854225        23.2446 
 108   0.0000       0.871699        23.7201 
 109   0.0000       0.880135        23.9497 
 110   0.0000       0.927466        25.2376 
 111   0.0000       0.937013        25.4974 
 112   0.0000       0.939868        25.5751 
 113   0.0000       0.948146        25.8004 
 114   0.0000       0.958614        26.0852 
 115   0.0000       0.969454        26.3802 
 116   0.0000       0.988814        26.9070 
 117   0.0000       0.995691        27.0941 
 118   0.0000       1.005742        27.3676 
 119   0.0000       1.023634        27.8545 
 120   0.0000       1.043964        28.4077 
 121   0.0000       1.048970        28.5439 
 122   0.0000       1.060526        28.8584 
 123   0.0000       1.070867        29.1398 
 124   0.0000       1.079350        29.3706 
 125   0.0000       1.087750        29.5992 
 126   0.0000       1.098026        29.8788 
 127   0.0000       1.101823        29.9821 
 128   0.0000       1.130652        30.7666 
 129   0.0000       1.173181        31.9239 
 130   0.0000       1.190511        32.3954 
 131   0.0000       1.195557        32.5328 
 132   0.0000       1.200631        32.6708 
 133   0.0000       1.211740        32.9731 
 134   0.0000       1.214175        33.0394 
 135   0.0000       1.256189        34.1827 
 136   0.0000       1.287986        35.0479 
 137   0.0000       1.332441        36.2576 
 138   0.0000       1.338656        36.4267 
 139   0.0000       1.371014        37.3072 
 140   0.0000       1.389516        37.8107 
 141   0.0000       1.423709        38.7411 
 142   0.0000       1.437091        39.1052 
 143   0.0000       1.462000        39.7830 
 144   0.0000       1.472048        40.0565 
 145   0.0000       1.497826        40.7579 
 146   0.0000       1.499161        40.7942 
 147   0.0000       1.513711        41.1902 
 148   0.0000       1.526153        41.5287 
 149   0.0000       1.552270        42.2394 
 150   0.0000       1.584607        43.1193 
 151   0.0000       1.596819        43.4516 
 152   0.0000       1.599706        43.5302 
 153   0.0000       1.606804        43.7234 
 154   0.0000       1.614314        43.9277 
 155   0.0000       1.627677        44.2913 
 156   0.0000       1.650031        44.8996 
 157   0.0000       1.654596        45.0238 
 158   0.0000       1.669399        45.4266 
 159   0.0000       1.682208        45.7752 
 160   0.0000       1.700199        46.2648 
 161   0.0000       1.706265        46.4298 
 162   0.0000       1.725771        46.9606 
 163   0.0000       1.740868        47.3714 
 164   0.0000       1.754857        47.7521 
 165   0.0000       1.765779        48.0493 
 166   0.0000       1.778995        48.4089 
 167   0.0000       1.800553        48.9955 
 168   0.0000       1.803115        49.0653 
 169   0.0000       1.812929        49.3323 
 170   0.0000       1.824831        49.6562 
 171   0.0000       1.849287        50.3217 
 172   0.0000       1.861706        50.6596 
 173   0.0000       1.875857        51.0447 
 174   0.0000       1.889404        51.4133 
 175   0.0000       1.892585        51.4999 
 176   0.0000       1.917575        52.1799 
 177   0.0000       1.922326        52.3091 
 178   0.0000       1.932017        52.5729 
 179   0.0000       1.949360        53.0448 
 180   0.0000       1.970106        53.6093 
 181   0.0000       1.994842        54.2824 
 182   0.0000       2.002529        54.4916 
 183   0.0000       2.011139        54.7259 
 184   0.0000       2.031071        55.2683 
 185   0.0000       2.035985        55.4020 
 186   0.0000       2.077006        56.5182 
 187   0.0000       2.094189        56.9858 
 188   0.0000       2.104191        57.2579 
 189   0.0000       2.109766        57.4097 
 190   0.0000       2.175396        59.1955 
 191   0.0000       2.201895        59.9166 
 192   0.0000       2.227290        60.6076 
 193   0.0000       2.255268        61.3690 
 194   0.0000       2.273686        61.8701 
 195   0.0000       2.276901        61.9576 
 196   0.0000       2.307658        62.7946 
 197   0.0000       2.311931        62.9108 
 198   0.0000       2.343227        63.7624 
 199   0.0000       2.388407        64.9919 
 200   0.0000       2.399227        65.2863 
 201   0.0000       2.438760        66.3620 
 202   0.0000       2.454040        66.7778 
 203   0.0000       2.492071        67.8127 
 204   0.0000       2.501055        68.0572 
 205   0.0000       2.506600        68.2081 
 206   0.0000       2.539993        69.1167 
 207   0.0000       2.546292        69.2881 
 208   0.0000       2.565245        69.8039 
 209   0.0000       2.577788        70.1452 
 210   0.0000       2.647752        72.0490 
 211   0.0000       2.661800        72.4313 
 212   0.0000       2.740184        74.5642 
 213   0.0000       2.758082        75.0512 
 214   0.0000       2.801332        76.2281 
 215   0.0000       2.896701        78.8232 
 216   0.0000       2.928642        79.6924 
 217   0.0000       2.977022        81.0089 
 218   0.0000       3.028772        82.4171 
 219   0.0000       3.227177        87.8160 
 220   0.0000       3.319200        90.3200 
 221   0.0000       3.511480        95.5522 

                    ********************************
                    * MULLIKEN POPULATION ANALYSIS *
                    ********************************

-----------------------
MULLIKEN ATOMIC CHARGES
-----------------------
   0 C :   -0.182544
   1 C :    0.052657
   2 C :   -0.003177
   3 C :    0.129293
   4 C :   -0.039256
   5 C :   -0.197478
   6 C :    0.115809
   7 C :    0.020624
   8 C :    0.087103
   9 C :   -0.046549
  10 C :    0.090900
  11 N :   -0.145889
  12 N :   -0.136706
  13 H :    0.098473
  14 H :    0.082969
  15 H :    0.023128
  16 H :   -0.017593
  17 H :   -0.008659
  18 H :   -0.018280
  19 H :    0.001051
  20 H :    0.094124
Sum of atomic charges:    0.0000000

--------------------------------
MULLIKEN REDUCED ORBITAL CHARGES
--------------------------------
  0 C s       :     3.302677  s :     3.302677
      pz      :     0.956904  p :     2.836965
      px      :     0.899847
      py      :     0.980214
      dz2     :     0.011243  d :     0.042903
      dxz     :     0.000460
      dyz     :     0.011287
      dx2y2   :     0.010529
      dxy     :     0.009383
  1 C s       :     3.087369  s :     3.087369
      pz      :     0.886758  p :     2.786808
      px      :     0.920292
      py      :     0.979757
      dz2     :     0.002809  d :     0.073167
      dxz     :     0.006772
      dyz     :     0.015895
      dx2y2   :     0.023019
      dxy     :     0.024671
  2 C s       :     3.061394  s :     3.061394
      pz      :     1.062067  p :     2.881327
      px      :     0.965152
      py      :     0.854108
      dz2     :     0.002919  d :     0.060455
      dxz     :     0.010112
      dyz     :     0.004209
      dx2y2   :     0.026442
      dxy     :     0.016773
  3 C s       :     3.084434  s :     3.084434
      pz      :     0.898846  p :     2.669414
      px      :     0.798533
      py      :     0.972035
      dz2     :     0.006648  d :     0.116859
      dxz     :     0.023283
      dyz     :     0.015804
      dx2y2   :     0.029525
      dxy     :     0.041600
  4 C s       :     3.166055  s :     3.166055
      pz      :     0.921881  p :     2.785263
      px      :     0.953047
      py      :     0.910335
      dz2     :     0.004781  d :     0.087938
      dxz     :     0.011711
      dyz     :     0.012658
      dx2y2   :     0.035332
      dxy     :     0.023456
  5 C s       :     3.265336  s :     3.265336
      pz      :     0.825643  p :     2.896459
      px      :     1.072020
      py      :     0.998796
      dz2     :     0.006466  d :     0.035683
      dxz     :     0.003059
      dyz     :     0.012672
      dx2y2   :     0.006388
      dxy     :     0.007098
  6 C s       :     3.091993  s :     3.091993
      pz      :     0.977017  p :     2.709378
      px      :     0.800982
      py      :     0.931379
      dz2     :     0.005055  d :     0.082820
      dxz     :     0.013154
      dyz     :     0.011837
      dx2y2   :     0.030249
      dxy     :     0.022526
  7 C s       :     3.088675  s :     3.088675
      pz      :     0.984940  p :     2.775925
      px      :     0.772795
      py      :     1.018189
      dz2     :     0.006727  d :     0.114777
      dxz     :     0.024094
      dyz     :     0.014968
      dx2y2   :     0.031140
      dxy     :     0.037847
  8 C s       :     3.040231  s :     3.040231
      pz      :     0.997945  p :     2.776819
      px      :     0.926691
      py      :     0.852184
      dz2     :     0.003999  d :     0.095846
      dxz     :     0.016401
      dyz     :     0.007490
      dx2y2   :     0.042489
      dxy     :     0.025467
  9 C s       :     3.161848  s :     3.161848
      pz      :     0.960271  p :     2.820420
      px      :     0.962368
      py      :     0.897781
      dz2     :     0.003130  d :     0.064281
      dxz     :     0.012810
      dyz     :     0.005327
      dx2y2   :     0.024156
      dxy     :     0.018858
 10 C s       :     3.044127  s :     3.044127
      pz      :     0.976821  p :     2.770219
      px      :     0.918865
      py      :     0.874533
      dz2     :     0.004183  d :     0.094754
      dxz     :     0.008211
      dyz     :     0.014140
      dx2y2   :     0.026798
      dxy     :     0.041422
 11 N s       :     3.497330  s :     3.497330
      pz      :     1.074675  p :     3.607839
      px      :     1.498574
      py      :     1.034590
      dz2     :     0.004492  d :     0.040720
      dxz     :     0.006207
      dyz     :     0.007369
      dx2y2   :     0.010118
      dxy     :     0.012534
 12 N s       :     3.397527  s :     3.397527
      pz      :     1.592462  p :     3.705264
      px      :     1.101448
      py      :     1.011354
      dz2     :     0.002469  d :     0.033916
      dxz     :     0.006876
      dyz     :     0.002757
      dx2y2   :     0.011660
      dxy     :     0.010153
 13 H s       :     0.869051  s :     0.869051
      pz      :     0.014035  p :     0.032476
      px      :     0.009352
      py      :     0.009090
 14 H s       :     0.886534  s :     0.886534
      pz      :     0.016295  p :     0.030497
      px      :     0.006164
      py      :     0.008038
 15 H s       :     0.948506  s :     0.948506
      pz      :     0.004607  p :     0.028367
      px      :     0.016715
      py      :     0.007045
 16 H s       :     0.988972  s :     0.988972
      pz      :     0.006577  p :     0.028621
      px      :     0.004303
      py      :     0.017741
 17 H s       :     0.981816  s :     0.981816
      pz      :     0.005531  p :     0.026843
      px      :     0.004007
      py      :     0.017305
 18 H s       :     0.990032  s :     0.990032
      pz      :     0.005552  p :     0.028248
      px      :     0.004205
      py      :     0.018491
 19 H s       :     0.972302  s :     0.972302
      pz      :     0.005339  p :     0.026648
      px      :     0.013498
      py      :     0.007811
 20 H s       :     0.851622  s :     0.851622
      pz      :     0.014671  p :     0.054254
      px      :     0.007130
      py      :     0.032453


                     *******************************
                     * LOEWDIN POPULATION ANALYSIS *
                     *******************************

----------------------
LOEWDIN ATOMIC CHARGES
----------------------
   0 C :   -0.109532
   1 C :   -0.025416
   2 C :   -0.067259
   3 C :    0.020271
   4 C :   -0.043776
   5 C :   -0.114679
   6 C :   -0.027004
   7 C :   -0.050943
   8 C :   -0.074990
   9 C :   -0.019069
  10 C :   -0.059011
  11 N :    0.049288
  12 N :    0.183743
  13 H :    0.049755
  14 H :    0.047815
  15 H :    0.051551
  16 H :    0.033538
  17 H :    0.022103
  18 H :    0.036584
  19 H :    0.025367
  20 H :    0.071664

-------------------------------
LOEWDIN REDUCED ORBITAL CHARGES
-------------------------------
  0 C s       :     3.064478  s :     3.064478
      pz      :     1.028398  p :     2.943410
      px      :     0.857805
      py      :     1.057208
      dz2     :     0.028202  d :     0.101644
      dxz     :     0.000707
      dyz     :     0.022116
      dx2y2   :     0.028264
      dxy     :     0.022355
  1 C s       :     2.824286  s :     2.824286
      pz      :     0.844011  p :     2.973486
      px      :     1.025582
      py      :     1.103893
      dz2     :     0.014383  d :     0.227644
      dxz     :     0.016743
      dyz     :     0.039438
      dx2y2   :     0.077739
      dxy     :     0.079341
  2 C s       :     2.809716  s :     2.809716
      pz      :     1.013074  p :     3.064109
      px      :     1.022853
      py      :     1.028182
      dz2     :     0.013259  d :     0.193435
      dxz     :     0.025815
      dyz     :     0.008978
      dx2y2   :     0.086931
      dxy     :     0.058453
  3 C s       :     2.802760  s :     2.802760
      pz      :     0.881148  p :     2.868882
      px      :     0.982919
      py      :     1.004815
      dz2     :     0.020186  d :     0.308086
      dxz     :     0.053120
      dyz     :     0.039539
      dx2y2   :     0.080370
      dxy     :     0.114871
  4 C s       :     2.809250  s :     2.809250
      pz      :     0.882402  p :     2.972211
      px      :     1.026439
      py      :     1.063370
      dz2     :     0.016011  d :     0.262315
      dxz     :     0.028433
      dyz     :     0.032112
      dx2y2   :     0.110398
      dxy     :     0.075361
  5 C s       :     3.048032  s :     3.048032
      pz      :     0.887857  p :     2.978148
      px      :     1.050918
      py      :     1.039372
      dz2     :     0.016133  d :     0.088499
      dxz     :     0.005354
      dyz     :     0.028311
      dx2y2   :     0.019626
      dxy     :     0.019074
  6 C s       :     2.791303  s :     2.791303
      pz      :     0.943635  p :     2.985003
      px      :     1.015646
      py      :     1.025722
      dz2     :     0.017331  d :     0.250698
      dxz     :     0.031329
      dyz     :     0.028798
      dx2y2   :     0.099470
      dxy     :     0.073772
  7 C s       :     2.788851  s :     2.788851
      pz      :     0.953606  p :     2.947790
      px      :     0.979479
      py      :     1.014704
      dz2     :     0.021053  d :     0.314303
      dxz     :     0.058683
      dyz     :     0.036895
      dx2y2   :     0.094364
      dxy     :     0.103307
  8 C s       :     2.816658  s :     2.816658
      pz      :     0.963760  p :     2.987541
      px      :     1.017297
      py      :     1.006484
      dz2     :     0.016417  d :     0.270791
      dxz     :     0.039224
      dyz     :     0.012835
      dx2y2   :     0.125754
      dxy     :     0.076561
  9 C s       :     2.815864  s :     2.815864
      pz      :     0.928481  p :     3.004493
      px      :     1.051170
      py      :     1.024841
      dz2     :     0.013538  d :     0.198712
      dxz     :     0.032514
      dyz     :     0.009927
      dx2y2   :     0.078415
      dxy     :     0.064318
 10 C s       :     2.819259  s :     2.819259
      pz      :     0.945081  p :     2.974731
      px      :     1.044444
      py      :     0.985205
      dz2     :     0.016145  d :     0.265021
      dxz     :     0.018961
      dyz     :     0.030887
      dx2y2   :     0.076741
      dxy     :     0.122287
 11 N s       :     3.149975  s :     3.149975
      pz      :     1.052278  p :     3.704633
      px      :     1.488876
      py      :     1.163479
      dz2     :     0.009426  d :     0.096104
      dxz     :     0.007965
      dyz     :     0.017229
      dx2y2   :     0.028160
      dxy     :     0.033324
 12 N s       :     2.959565  s :     2.959565
      pz      :     1.497249  p :     3.760990
      px      :     1.138961
      py      :     1.124781
      dz2     :     0.005722  d :     0.095702
      dxz     :     0.015349
      dyz     :     0.005269
      dx2y2   :     0.036037
      dxy     :     0.033325
 13 H s       :     0.855589  s :     0.855589
      pz      :     0.043324  p :     0.094657
      px      :     0.026064
      py      :     0.025269
 14 H s       :     0.862286  s :     0.862286
      pz      :     0.048903  p :     0.089900
      px      :     0.018686
      py      :     0.022311
 15 H s       :     0.871806  s :     0.871806
      pz      :     0.014275  p :     0.076643
      px      :     0.042242
      py      :     0.020126
 16 H s       :     0.884655  s :     0.884655
      pz      :     0.020127  p :     0.081807
      px      :     0.015750
      py      :     0.045930
 17 H s       :     0.899997  s :     0.899997
      pz      :     0.017342  p :     0.077900
      px      :     0.014394
      py      :     0.046164
 18 H s       :     0.881984  s :     0.881984
      pz      :     0.016700  p :     0.081432
      px      :     0.015960
      py      :     0.048772
 19 H s       :     0.897296  s :     0.897296
      pz      :     0.017006  p :     0.077337
      px      :     0.036254
      py      :     0.024077
 20 H s       :     0.787290  s :     0.787290
      pz      :     0.044407  p :     0.141046
      px      :     0.021455
      py      :     0.075184


                      *****************************
                      * MAYER POPULATION ANALYSIS *
                      *****************************

  NA   - Mulliken gross atomic population
  ZA   - Total nuclear charge
  QA   - Mulliken gross atomic charge
  VA   - Mayer's total valence
  BVA  - Mayer's bonded valence
  FA   - Mayer's free valence

  ATOM       NA         ZA         QA         VA         BVA        FA
  0 C      6.1825     6.0000    -0.1825     3.7214     3.7214     0.0000
  1 C      5.9473     6.0000     0.0527     4.1190     4.1190     0.0000
  2 C      6.0032     6.0000    -0.0032     3.9779     3.9779    -0.0000
  3 C      5.8707     6.0000     0.1293     3.9542     3.9542     0.0000
  4 C      6.0393     6.0000    -0.0393     4.0941     4.0941    -0.0000
  5 C      6.1975     6.0000    -0.1975     3.7928     3.7928     0.0000
  6 C      5.8842     6.0000     0.1158     4.0383     4.0383    -0.0000
  7 C      5.9794     6.0000     0.0206     3.9603     3.9603     0.0000
  8 C      5.9129     6.0000     0.0871     4.0197     4.0197     0.0000
  9 C      6.0465     6.0000    -0.0465     3.9595     3.9595    -0.0000
 10 C      5.9091     6.0000     0.0909     4.0498     4.0498    -0.0000
 11 N      7.1459     7.0000    -0.1459     3.2785     3.2785     0.0000
 12 N      7.1367     7.0000    -0.1367     3.4636     3.4636    -0.0000
 13 H      0.9015     1.0000     0.0985     0.9904     0.9904     0.0000
 14 H      0.9170     1.0000     0.0830     0.9902     0.9902     0.0000
 15 H      0.9769     1.0000     0.0231     0.9755     0.9755    -0.0000
 16 H      1.0176     1.0000    -0.0176     0.9811     0.9811    -0.0000
 17 H      1.0087     1.0000    -0.0087     0.9865     0.9865    -0.0000
 18 H      1.0183     1.0000    -0.0183     0.9992     0.9992     0.0000
 19 H      0.9989     1.0000     0.0011     0.9832     0.9832    -0.0000
 20 H      0.9059     1.0000     0.0941     1.0151     1.0151    -0.0000

  Mayer bond orders larger than 0.100000
B(  0-C ,  1-C ) :   1.6154 B(  0-C ,  5-C ) :   0.9528 B(  0-C , 14-H ) :   0.8945 
B(  1-C ,  2-C ) :   1.4393 B(  1-C , 15-H ) :   0.8983 B(  2-C ,  3-C ) :   1.4303 
B(  2-C ,  5-C ) :   0.1052 B(  2-C , 16-H ) :   0.9104 B(  3-C ,  4-C ) :   1.1080 
B(  3-C , 12-N ) :   1.2206 B(  4-C ,  5-C ) :   1.6841 B(  4-C ,  6-C ) :   1.1685 
B(  5-C , 13-H ) :   0.8818 B(  6-C ,  7-C ) :   1.2812 B(  6-C ,  9-C ) :   1.4207 
B(  7-C ,  8-C ) :   1.3645 B(  7-C , 12-N ) :   1.1125 B(  8-C , 11-N ) :   1.5990 
B(  8-C , 17-H ) :   0.9400 B(  9-C , 10-C ) :   1.4592 B(  9-C , 18-H ) :   0.9323 
B( 10-C , 11-N ) :   1.5065 B( 10-C , 19-H ) :   0.9537 B( 12-N , 20-H ) :   0.9476 


-------
TIMINGS
-------

Total SCF time: 0 days 0 hours 0 min 18 sec 

Total time                  ....      18.038 sec
Sum of individual times     ....      16.268 sec  ( 90.2%)

Fock matrix formation       ....      14.494 sec  ( 80.4%)
  Split-RI-J                ....       0.749 sec  (  5.2% of F)
  Chain of spheres X        ....       6.500 sec  ( 44.8% of F)
  XC integration            ....       6.910 sec  ( 47.7% of F)
    Basis function eval.    ....       0.058 sec  (  0.8% of XC)
    Density eval.           ....       0.060 sec  (  0.9% of XC)
    XC-Functional eval.     ....       0.021 sec  (  0.3% of XC)
    XC-Potential eval.      ....       0.023 sec  (  0.3% of XC)
Diagonalization             ....       0.016 sec  (  0.1%)
Density matrix formation    ....       0.025 sec  (  0.1%)
Population analysis         ....       0.029 sec  (  0.2%)
Initial guess               ....       0.021 sec  (  0.1%)
Orbital Transformation      ....       0.000 sec  (  0.0%)
Orbital Orthonormalization  ....       0.015 sec  (  0.1%)
DIIS solution               ....       0.008 sec  (  0.0%)
SOSCF solution              ....       0.178 sec  (  1.0%)
Grid generation             ....       1.497 sec  (  8.3%)

Maximum memory used throughout the entire SCF-calculation: 66.6 MB


           ************************************************************
           *        Program running with 64 parallel MPI-processes    *
           *              working on a common directory               *
           ************************************************************
------------------------------------------------------------------------------
                        ORCA TD-DFT/TDA CALCULATION
------------------------------------------------------------------------------

Input orbitals are from        ... /gpfs/scratch/uam77/uam121718/12824685/engrad_0.gbw
CI-vector output               ... /gpfs/scratch/uam77/uam121718/12824685/engrad_0.cis
Tamm-Dancoff approximation     ... operative
CIS-Integral strategy          ... AO-integrals
Integral handling              ... AO integral Direct
Max. core memory used          ... 512 MB
Reference state                ... RHF
Generation of triplets         ... off
Follow IRoot                   ... off
Number of operators            ... 1
Orbital ranges used for CIS calculation:
 Operator 0:  Orbitals  13... 43  to  44...221
XAS localization array:
 Operator 0:  Orbitals  -1... -1

-------------------
XC-INTEGRATION GRID
-------------------

General Integration Accuracy     IntAcc      ... 3.467
Radial Grid Type                 RadialGrid  ... OptM3 with GC (2021)
Angular Grid (max. ang.)         AngularGrid ... 1 (Lebedev-50)
Angular grid pruning method      GridPruning ... 4 (adaptive)
Weight generation scheme         WeightScheme... Becke
Basis function cutoff            BFCut       ... 1.0000e-11
Integration weight cutoff        WCut        ... 1.0000e-14
Angular grids for H and He will be reduced by one unit
Partially contracted basis set               ... off
Rotationally invariant grid construction     ... off

Total number of grid points                  ...    15455
Total number of batches                      ...      253
Average number of points per batch           ...       61
Average number of grid points per atom       ...      736

---------------------
COSX-INTEGRATION GRID
---------------------

General Integration Accuracy     IntAcc      ... 3.067
Radial Grid Type                 RadialGrid  ... OptM3 with GC (2021)
Angular Grid (max. ang.)         AngularGrid ... 1 (Lebedev-50)
Angular grid pruning method      GridPruning ... 4 (adaptive)
Weight generation scheme         WeightScheme... Becke
Basis function cutoff            BFCut       ... 1.0000e-11
Integration weight cutoff        WCut        ... 1.0000e-14
Angular grids for H and He will be reduced by one unit
Partially contracted basis set               ... on
Rotationally invariant grid construction     ... off

Total number of grid points                  ...     7047
Total number of batches                      ...      123
Average number of points per batch           ...       57
Average number of grid points per atom       ...      336

---------------
TD-DFT XC SETUP
---------------

DFT calculation                         ... on
Name of the grid file                   ... /gpfs/scratch/uam77/uam121718/12824685/engrad_0.grid_cis.tmp
Exchange functional (TD-DFT)            ... WB88
Correlation functional (TD-DFT)         ... LYP
 LDA part of GGA corr.  LDAOpt (TD-DFT) ... VWN-5
Hybrid DFT                              ... on
   Exchange mixing (TD-DFT)             ...  0.190
   GGA exch. scaling (TD-DFT)           ...  0.350
   GGA corr. scaling (TD-DFT)           ...  0.810
Range-Separated Exchange                ... on
   Range Range separation parameter mu  .... 0.330
   Max. amount of RS exchange (TD-DFT)  ...  0.460

Building densities             ... done
Calculating rho(r) on the grid ... done
Building xc-kernel on the grid ... done
                    *** TD-DFT CALCULATION INITIALIZED ***

------------------------
DAVIDSON-DIAGONALIZATION
------------------------

Dimension of the eigenvalue problem            ...   5518
Number of roots to be determined               ...     10
Maximum size of the expansion space            ...    100
Maximum number of iterations                   ...    100
Convergence tolerance for the residual         ...    2.500e-07
Convergence tolerance for the energies         ...    2.500e-07
Orthogonality tolerance                        ...    1.000e-14
Level Shift                                    ...    0.000e+00
Constructing the preconditioner                ... o.k.
Building the initial guess                     ... o.k.
Number of trial vectors determined             ...    100


                       ****Iteration    0****

   Memory handling for direct AO based CIS:
   Memory per vector needed      ...     2 MB
   Memory needed                 ...    84 MB
   Memory available              ...   512 MB
   Number of vectors per batch   ...   181
   Number of batches             ...     1
   Time for densities:            0.036
   Time for RI-J (Direct):        0.300
   Time for K (COSX):             0.591
   Time for XC-Integration:       0.205
   Time for Sigma-Completion:     0.097
   Size of expansion space: 30
   Lowest Energy          :     0.002939496650
   Maximum Energy change  :     0.189952976669 (vector 9)
   Maximum residual norm  :     0.006906883732

                       ****Iteration    1****
   Time for densities:            0.010
   Time for RI-J (Direct):        0.094
   Time for K (COSX):             0.315
   Time for XC-Integration:       0.135
   Time for Sigma-Completion:     0.034
   Size of expansion space: 40
   Lowest Energy          :     0.000197398944
   Maximum Energy change  :     0.009172451551 (vector 5)
   Maximum residual norm  :     0.000474310462

                       ****Iteration    2****
   Time for densities:            0.014
   Time for RI-J (Direct):        0.119
   Time for K (COSX):             0.313
   Time for XC-Integration:       0.120
   Time for Sigma-Completion:     0.034
   Size of expansion space: 50
   Lowest Energy          :     0.000105438480
   Maximum Energy change  :     0.001046590325 (vector 9)
   Maximum residual norm  :     0.000194514413

                       ****Iteration    3****
   Time for densities:            0.013
   Time for RI-J (Direct):        0.120
   Time for K (COSX):             0.321
   Time for XC-Integration:       0.139
   Time for Sigma-Completion:     0.035
   Size of expansion space: 60
   Lowest Energy          :     0.000102868463
   Maximum Energy change  :     0.000538259580 (vector 9)
   Maximum residual norm  :     0.000056965642

                       ****Iteration    4****
   Time for densities:            0.012
   Time for RI-J (Direct):        0.125
   Time for K (COSX):             0.312
   Time for XC-Integration:       0.149
   Time for Sigma-Completion:     0.038
   Size of expansion space: 70
   Lowest Energy          :     0.000102783033
   Maximum Energy change  :     0.000144013643 (vector 9)
   Maximum residual norm  :     0.000009651667

                       ****Iteration    5****
   Time for densities:            0.011
   Time for RI-J (Direct):        0.138
   Time for K (COSX):             0.311
   Time for XC-Integration:       0.132
   Time for Sigma-Completion:     0.034
   Size of expansion space: 80
   Lowest Energy          :     0.000102781060
   Maximum Energy change  :     0.000019382808 (vector 9)
   Maximum residual norm  :     0.000001035985

                       ****Iteration    6****
   Time for densities:            0.012
   Time for RI-J (Direct):        0.125
   Time for K (COSX):             0.314
   Time for XC-Integration:       0.130
   Time for Sigma-Completion:     0.034
   Size of expansion space: 90
   Lowest Energy          :     0.000102781010
   Maximum Energy change  :     0.000001895716 (vector 9)
   Maximum residual norm  :     0.000000081276

      *** CONVERGENCE OF RESIDUAL NORM REACHED ***

Storing the converged CI vectors               ... /gpfs/scratch/uam77/uam121718/12824685/engrad_0.cis1

                 *** DAVIDSON DONE ***

Total time for solving the CIS problem:     5.703sec

------------------------------------
TD-DFT/TDA EXCITED STATES (SINGLETS)
------------------------------------

the weight of the individual excitations are printed if larger than 1.0e-02

STATE  1:  E=   0.000103 au      0.003 eV       22.6 cm**-1 <S**2> =   0.000000
    42a ->  44a  :     0.060804 (c=  0.24658419)
    43a ->  44a  :     0.910207 (c= -0.95404794)
    43a ->  46a  :     0.014026 (c= -0.11843139)

STATE  2:  E=   0.071250 au      1.939 eV    15637.5 cm**-1 <S**2> =   0.000000
    40a ->  44a  :     0.020596 (c=  0.14351395)
    41a ->  44a  :     0.011075 (c=  0.10523743)
    42a ->  44a  :     0.663953 (c= -0.81483306)
    43a ->  44a  :     0.026321 (c= -0.16223818)
    43a ->  45a  :     0.049609 (c=  0.22273130)
    43a ->  46a  :     0.199165 (c= -0.44627885)

STATE  3:  E=   0.111170 au      3.025 eV    24399.0 cm**-1 <S**2> =   0.000000
    40a ->  44a  :     0.011556 (c= -0.10749891)
    41a ->  44a  :     0.064261 (c=  0.25349839)
    43a ->  45a  :     0.647981 (c= -0.80497284)
    43a ->  46a  :     0.141537 (c= -0.37621443)
    43a ->  48a  :     0.105420 (c= -0.32468492)

STATE  4:  E=   0.124374 au      3.384 eV    27297.0 cm**-1 <S**2> =   0.000000
    37a ->  44a  :     0.011085 (c= -0.10528472)
    38a ->  44a  :     0.020704 (c=  0.14388730)
    40a ->  44a  :     0.602755 (c= -0.77637279)
    41a ->  44a  :     0.095959 (c= -0.30977275)
    42a ->  44a  :     0.115675 (c= -0.34011062)
    42a ->  46a  :     0.018335 (c=  0.13540536)
    43a ->  45a  :     0.016359 (c= -0.12790068)
    43a ->  46a  :     0.079649 (c=  0.28222150)

STATE  5:  E=   0.135205 au      3.679 eV    29674.0 cm**-1 <S**2> =   0.000000
    40a ->  44a  :     0.027014 (c=  0.16435803)
    40a ->  45a  :     0.021613 (c= -0.14701212)
    40a ->  46a  :     0.029984 (c=  0.17315889)
    41a ->  44a  :     0.382863 (c= -0.61875888)
    42a ->  45a  :     0.341846 (c=  0.58467619)
    42a ->  46a  :     0.091208 (c= -0.30200727)
    42a ->  48a  :     0.014795 (c=  0.12163667)
    43a ->  46a  :     0.040702 (c= -0.20174655)

STATE  6:  E=   0.141254 au      3.844 eV    31001.7 cm**-1 <S**2> =   0.000000
    40a ->  44a  :     0.208240 (c= -0.45633374)
    40a ->  46a  :     0.067761 (c=  0.26030998)
    41a ->  44a  :     0.140558 (c=  0.37491022)
    42a ->  46a  :     0.367287 (c= -0.60604205)
    42a ->  48a  :     0.013699 (c= -0.11704074)
    43a ->  45a  :     0.064643 (c=  0.25424935)
    43a ->  46a  :     0.063714 (c= -0.25241538)

STATE  7:  E=   0.154659 au      4.208 eV    33943.7 cm**-1 <S**2> =   0.000000
    39a ->  44a  :     0.836926 (c=  0.91483643)
    39a ->  45a  :     0.077071 (c= -0.27761662)
    39a ->  46a  :     0.012877 (c= -0.11347814)
    39a ->  47a  :     0.017521 (c=  0.13236617)
    39a ->  48a  :     0.023448 (c=  0.15312749)

STATE  8:  E=   0.176823 au      4.812 eV    38808.2 cm**-1 <S**2> =   0.000000
    38a ->  44a  :     0.578510 (c= -0.76059834)
    40a ->  45a  :     0.026946 (c=  0.16415230)
    41a ->  44a  :     0.044590 (c= -0.21116323)
    42a ->  48a  :     0.010619 (c= -0.10305065)
    43a ->  45a  :     0.027361 (c=  0.16541181)
    43a ->  47a  :     0.027526 (c=  0.16590987)
    43a ->  48a  :     0.212963 (c= -0.46147883)

STATE  9:  E=   0.178458 au      4.856 eV    39167.1 cm**-1 <S**2> =   0.000000
    38a ->  44a  :     0.072124 (c=  0.26855852)
    41a ->  44a  :     0.105830 (c=  0.32531504)
    41a ->  46a  :     0.031801 (c= -0.17832943)
    42a ->  45a  :     0.193776 (c=  0.44020007)
    42a ->  46a  :     0.044779 (c=  0.21161104)
    42a ->  48a  :     0.012062 (c=  0.10982519)
    43a ->  45a  :     0.065441 (c=  0.25581410)
    43a ->  46a  :     0.068864 (c=  0.26241947)
    43a ->  48a  :     0.336955 (c= -0.58047856)

STATE 10:  E=   0.185009 au      5.034 eV    40604.8 cm**-1 <S**2> =   0.000000
    36a ->  44a  :     0.011189 (c=  0.10577716)
    37a ->  44a  :     0.032535 (c= -0.18037404)
    38a ->  44a  :     0.026841 (c=  0.16383277)
    41a ->  44a  :     0.023703 (c= -0.15395876)
    41a ->  45a  :     0.014503 (c= -0.12042852)
    41a ->  46a  :     0.014689 (c=  0.12119794)
    41a ->  47a  :     0.013086 (c=  0.11439242)
    42a ->  45a  :     0.149105 (c= -0.38614120)
    42a ->  46a  :     0.054018 (c= -0.23241812)
    43a ->  47a  :     0.333720 (c= -0.57768540)
    43a ->  48a  :     0.238074 (c= -0.48792836)


-----------------------------
TD-DFT/TDA-EXCITATION SPECTRA
-----------------------------

Center of mass = (  5.0972,  4.0297, -0.0722)
Calculating the Dipole integrals                  ... done
Transforming integrals                            ... done
Calculating the Linear Momentum integrals         ... done
Transforming integrals                            ... done
Calculating angular momentum integrals            ... done
Transforming integrals                            ... done

-----------------------------------------------------------------------------
         ABSORPTION SPECTRUM VIA TRANSITION ELECTRIC DIPOLE MOMENTS
-----------------------------------------------------------------------------
State   Energy    Wavelength  fosc         T2        TX        TY        TZ  
        (cm-1)      (nm)                 (au**2)    (au)      (au)      (au) 
-----------------------------------------------------------------------------
   1      22.6   443305.2   0.000004275   0.06240  -0.23992  -0.06854   0.01183
   2   15637.5    639.5   0.002775835   0.05844  -0.18456  -0.15491  -0.01945
   3   24399.0    409.9   0.002542740   0.03431  -0.10164   0.15461  -0.00858
   4   27297.0    366.3   0.051234163   0.61790  -0.73520  -0.27791  -0.01253
   5   29674.0    337.0   0.039355869   0.43663  -0.56838   0.28789   0.17516
   6   31001.7    322.6   0.142042178   1.50837   1.17569  -0.34551  -0.08209
   7   33943.7    294.6   0.001884875   0.01828  -0.06457  -0.04400   0.11034
   8   38808.2    257.7   0.001911181   0.01621  -0.09435  -0.05655  -0.06413
   9   39167.1    255.3   0.233789677   1.96508   1.22941  -0.66304  -0.11837
  10   40604.8    246.3   0.176674855   1.43243  -0.96884   0.68567   0.15375

-----------------------------------------------------------------------------
         ABSORPTION SPECTRUM VIA TRANSITION VELOCITY DIPOLE MOMENTS
-----------------------------------------------------------------------------
State   Energy    Wavelength   fosc        P2         PX        PY        PZ  
        (cm-1)      (nm)                 (au**2)     (au)      (au)      (au) 
-----------------------------------------------------------------------------
   1      22.6   443305.2   37.232766380   0.00574  -0.07093  -0.02661  -0.00063
   2   15637.5    639.5   0.041249207   0.00441  -0.05528  -0.03665  -0.00293
   3   24399.0    409.9   0.004043139   0.00067  -0.01590   0.02052  -0.00052
   4   27297.0    366.3   0.015266107   0.00285   0.00259  -0.05245  -0.00950
   5   29674.0    337.0   0.028039364   0.00569   0.01228   0.06350   0.03878
   6   31001.7    322.6   0.012635201   0.00268   0.00780  -0.05032  -0.00919
   7   33943.7    294.6   0.000287995   0.00007  -0.00195  -0.00551   0.00571
   8   38808.2    257.7   0.000510273   0.00014   0.00914  -0.00603   0.00394
   9   39167.1    255.3   0.039485386   0.01057  -0.08156  -0.05333  -0.03277
  10   40604.8    246.3   0.026304409   0.00730   0.06615   0.04907   0.02271

-------------------------------------------------------------------
                             CD SPECTRUM
-------------------------------------------------------------------
State  Energy     Wavelength     R         MX        MY        MZ   
       (cm-1)       (nm)     (1e40*cgs)   (au)      (au)      (au)  
-------------------------------------------------------------------
   1      22.6   443305.2     -2.80131  -0.12958   0.46016  -0.46419
   2   15637.5    639.5      5.49189   0.05259  -0.05429  -0.66574
   3   24399.0    409.9      7.31642  -0.00729   0.08482  -0.19397
   4   27297.0    366.3      6.92621  -0.00419  -0.04618   0.09741
   5   29674.0    337.0     35.22046  -0.02280   0.17706   0.06152
   6   31001.7    322.6    -86.63292  -0.10341   0.24415  -0.27019
   7   33943.7    294.6     10.53109  -0.07942  -0.20370   0.07473
   8   38808.2    257.7      7.90191  -0.09805   0.01703  -0.13212
   9   39167.1    255.3    -11.93772   0.01051   0.02087   0.20618
  10   40604.8    246.3    -40.45721   0.02852  -0.02546  -0.26487

-------------------------------------------------------------------
         CD SPECTRUM VIA TRANSITION VELOCITY DIPOLE MOMENTS        
-------------------------------------------------------------------
State  Energy     Wavelength     R         MX        MY        MZ   
       (cm-1)       (nm)     (1e40*cgs)   (au)      (au)      (au)  
-------------------------------------------------------------------
   1      22.6   443305.2    -12671.40859  -0.12958   0.46016  -0.46419
   2   15637.5    639.5      6.81389   0.05259  -0.05429  -0.66574
   3   24399.0    409.9      8.30125  -0.00729   0.08482  -0.19397
   4   27297.0    366.3      5.63344  -0.00419  -0.04618   0.09741
   5   29674.0    337.0     46.54622  -0.02280   0.17706   0.06152
   6   31001.7    322.6    -35.41176  -0.10341   0.24415  -0.27019
   7   33943.7    294.6      5.19524  -0.07942  -0.20370   0.07473
   8   38808.2    257.7     -4.04944  -0.09805   0.01703  -0.13212
   9   39167.1    255.3    -23.05099   0.01051   0.02087   0.20618
  10   40604.8    246.3    -13.70210   0.02852  -0.02546  -0.26487

Total run time:        6.608 sec

           *** ORCA-CIS/TD-DFT FINISHED WITHOUT ERROR ***

Maximum memory used throughout the entire CIS-calculation: 106.6 MB

-------------------------   --------------------
FINAL SINGLE POINT ENERGY      -532.917206592880
-------------------------   --------------------



           ************************************************************
           *        Program running with 64 parallel MPI-processes    *
           *              working on a common directory               *
           ************************************************************
------------------------------------------------------------------------------
                         ORCA SCF GRADIENT CALCULATION
------------------------------------------------------------------------------

 ... reading COSX grid (gridx3)
Gradient of the Kohn-Sham DFT energy:
Kohn-Sham wavefunction type      ... RKS
Hartree-Fock exchange scaling    ...    0.190
Number of operators              ...    1
Number of atoms                  ...   21
Basis set dimensions             ...  222
Integral neglect threshold       ... 2.5e-11
Integral primitive cutoff        ... 2.5e-12
SHARK Integral package           ... ON

Nuc. rep. gradient       (SHARK) ... done (  0.0 sec)
HCore & Overlap gradient (SHARK) ... done (  0.0 sec)
RI-J gradient            (SHARK) ... done (  0.1 sec)
COSX-gradient                    ... done (  1.3 sec)
Exchange-correlation gradient    ... done

------------------
CARTESIAN GRADIENT
------------------

   1   C   :   -0.084279874    0.015252265    0.006688489
   2   C   :    0.067166896   -0.055279782   -0.010533450
   3   C   :   -0.081465958    0.005766814   -0.012107492
   4   C   :    0.062553859    0.070789209   -0.004216277
   5   C   :   -0.003608834   -0.106695501   -0.036147049
   6   C   :    0.063212687    0.090075208    0.079712847
   7   C   :   -0.025727796    0.011348831    0.004985731
   8   C   :   -0.013365732   -0.015687379    0.000877118
   9   C   :    0.004651534    0.004498036    0.000231770
  10   C   :    0.009652797    0.003493349   -0.000123541
  11   C   :   -0.005998834    0.005426488    0.000715408
  12   N   :    0.000141816   -0.007312697   -0.000170413
  13   N   :    0.013396930    0.001428505   -0.001537448
  14   H   :   -0.011710956   -0.021745034   -0.024860678
  15   H   :    0.011941940   -0.015577298   -0.013959453
  16   H   :   -0.006010518    0.012217910    0.009104324
  17   H   :   -0.001637976    0.001263108    0.002351868
  18   H   :   -0.000209598   -0.000119427    0.000834029
  19   H   :    0.001654791    0.000229735   -0.000991559
  20   H   :   -0.000219198    0.000493544   -0.000259285
  21   H   :    0.000116882    0.000233084   -0.000506480

Difference to translation invariance:
           :    0.0002548556    0.0000989677    0.0000884585

Difference to rotation invariance:
           :    0.0001824311   -0.0002847123   -0.0017141003

Norm of the cartesian gradient     ...    0.2564515799
RMS gradient                       ...    0.0323098621
MAX gradient                       ...    0.1066955007

-------
TIMINGS
-------

Total SCF gradient time            ...        3.049 sec

One electron gradient       ....       0.016 sec  (  0.5%)
RI-J Coulomb gradient       ....       0.142 sec  (  4.7%)
COSX gradient               ....       1.335 sec  ( 43.8%)
XC gradient                 ....       0.727 sec  ( 23.8%)

Maximum memory used throughout the entire SCFGRAD-calculation: 50.0 MB

                            ***************************************
                            *     ORCA property calculations      *
                            ***************************************

                                    ---------------------
                                    Active property flags
                                    ---------------------
   (+) Dipole Moment


------------------------------------------------------------------------------
                       ORCA ELECTRIC PROPERTIES CALCULATION
------------------------------------------------------------------------------

Dipole Moment Calculation                       ... on
Quadrupole Moment Calculation                   ... off
Polarizability Calculation                      ... off
GBWName                                         ... /gpfs/scratch/uam77/uam121718/12824685/engrad_0.gbw
Electron density                                ... /gpfs/scratch/uam77/uam121718/12824685/engrad_0.scfp
The origin for moment calculation is the CENTER OF MASS  = ( 5.097203,  4.029661 -0.072202)

-------------
DIPOLE MOMENT
-------------
                                X             Y             Z
Electronic contribution:      3.83772      -1.80488       1.00958
Nuclear contribution   :     -4.03788       0.41109      -1.73207
                        -----------------------------------------
Total Dipole Moment    :     -0.20016      -1.39379      -0.72249
                        -----------------------------------------
Magnitude (a.u.)       :      1.58263
Magnitude (Debye)      :      4.02272



--------------------
Rotational spectrum 
--------------------
 
Rotational constants in cm-1:     0.074828     0.018216     0.014737 
Rotational constants in MHz :  2243.272787   546.105004   441.816309 

 Dipole components along the rotational axes: 
x,y,z [a.u.] :     0.129142    -1.433534    -0.658035 
x,y,z [Debye]:     0.328252    -3.643754    -1.672592 

 

Timings for individual modules:

Sum of individual times         ...       47.406 sec (=   0.790 min)
GTO integral calculation        ...        5.203 sec (=   0.087 min)  11.0 %
SCF iterations                  ...       22.640 sec (=   0.377 min)  47.8 %
CIS module                      ...       11.547 sec (=   0.192 min)  24.4 %
SCF Gradient evaluation         ...        8.015 sec (=   0.134 min)  16.9 %
                             ****ORCA TERMINATED NORMALLY****
TOTAL RUN TIME: 0 days 0 hours 0 minutes 52 seconds 375 msec
