depaz01.ccc.uam.es
/temporal/fmatar/slurm_tmp_6734903

                                 *****************
                                 * O   R   C   A *
                                 *****************

                                            #,                                       
                                            ###                                      
                                            ####                                     
                                            #####                                    
                                            ######                                   
                                           ########,                                 
                                     ,,################,,,,,                         
                               ,,#################################,,                 
                          ,,##########################################,,             
                       ,#########################################, ''#####,          
                    ,#############################################,,   '####,        
                  ,##################################################,,,,####,       
                ,###########''''           ''''###############################       
              ,#####''   ,,,,##########,,,,          '''####'''          '####       
            ,##' ,,,,###########################,,,                        '##       
           ' ,,###''''                  '''############,,,                           
         ,,##''                                '''############,,,,        ,,,,,,###''
      ,#''                                            '''#######################'''  
     '                                                          ''''####''''         
             ,#######,   #######,   ,#######,      ##                                
            ,#'     '#,  ##    ##  ,#'     '#,    #''#        ######   ,####,        
            ##       ##  ##   ,#'  ##            #'  '#       #        #'  '#        
            ##       ##  #######   ##           ,######,      #####,   #    #        
            '#,     ,#'  ##    ##  '#,     ,#' ,#      #,         ##   #,  ,#        
             '#######'   ##     ##  '#######'  #'      '#     #####' # '####'        



                  #######################################################
                  #                        -***-                        #
                  #          Department of theory and spectroscopy      #
                  #    Directorship and core code : Frank Neese         #
                  #        Max Planck Institute fuer Kohlenforschung    #
                  #                Kaiser Wilhelm Platz 1               #
                  #                 D-45470 Muelheim/Ruhr               #
                  #                      Germany                        #
                  #                                                     #
                  #                  All rights reserved                #
                  #                        -***-                        #
                  #######################################################


                         Program Version 5.0.3 -  RELEASE  -


 With contributions from (in alphabetic order):
   Daniel Aravena         : Magnetic Suceptibility
   Michael Atanasov       : Ab Initio Ligand Field Theory (pilot matlab implementation)
   Alexander A. Auer      : GIAO ZORA, VPT2 properties, NMR spectrum
   Ute Becker             : Parallelization
   Giovanni Bistoni       : ED, misc. LED, open-shell LED, HFLD
   Martin Brehm           : Molecular dynamics
   Dmytro Bykov           : SCF Hessian
   Vijay G. Chilkuri      : MRCI spin determinant printing, contributions to CSF-ICE
   Dipayan Datta          : RHF DLPNO-CCSD density
   Achintya Kumar Dutta   : EOM-CC, STEOM-CC
   Dmitry Ganyushin       : Spin-Orbit,Spin-Spin,Magnetic field MRCI
   Miquel Garcia          : C-PCM and meta-GGA Hessian, CC/C-PCM, Gaussian charge scheme
   Yang Guo               : DLPNO-NEVPT2, F12-NEVPT2, CIM, IAO-localization
   Andreas Hansen         : Spin unrestricted coupled pair/coupled cluster methods
   Benjamin Helmich-Paris : MC-RPA, TRAH-SCF, COSX integrals
   Lee Huntington         : MR-EOM, pCC
   Robert Izsak           : Overlap fitted RIJCOSX, COSX-SCS-MP3, EOM
   Marcus Kettner         : VPT2
   Christian Kollmar      : KDIIS, OOCD, Brueckner-CCSD(T), CCSD density, CASPT2, CASPT2-K
   Simone Kossmann        : Meta GGA functionals, TD-DFT gradient, OOMP2, MP2 Hessian
   Martin Krupicka        : Initial AUTO-CI
   Lucas Lang             : DCDCAS
   Marvin Lechner         : AUTO-CI (C++ implementation), FIC-MRCC
   Dagmar Lenk            : GEPOL surface, SMD
   Dimitrios Liakos       : Extrapolation schemes; Compound Job, initial MDCI parallelization
   Dimitrios Manganas     : Further ROCIS development; embedding schemes
   Dimitrios Pantazis     : SARC Basis sets
   Anastasios Papadopoulos: AUTO-CI, single reference methods and gradients
   Taras Petrenko         : DFT Hessian,TD-DFT gradient, ASA, ECA, R-Raman, ABS, FL, XAS/XES, NRVS
   Peter Pinski           : DLPNO-MP2, DLPNO-MP2 Gradient
   Christoph Reimann      : Effective Core Potentials
   Marius Retegan         : Local ZFS, SOC
   Christoph Riplinger    : Optimizer, TS searches, QM/MM, DLPNO-CCSD(T), (RO)-DLPNO pert. Triples
   Tobias Risthaus        : Range-separated hybrids, TD-DFT gradient, RPA, STAB
   Michael Roemelt        : Original ROCIS implementation
   Masaaki Saitow         : Open-shell DLPNO-CCSD energy and density
   Barbara Sandhoefer     : DKH picture change effects
   Avijit Sen             : IP-ROCIS
   Kantharuban Sivalingam : CASSCF convergence, NEVPT2, FIC-MRCI
   Bernardo de Souza      : ESD, SOC TD-DFT
   Georgi Stoychev        : AutoAux, RI-MP2 NMR, DLPNO-MP2 response
   Willem Van den Heuvel  : Paramagnetic NMR
   Boris Wezisla          : Elementary symmetry handling
   Frank Wennmohs         : Technical directorship


 We gratefully acknowledge several colleagues who have allowed us to
 interface, adapt or use parts of their codes:
   Stefan Grimme, W. Hujo, H. Kruse, P. Pracht,  : VdW corrections, initial TS optimization,
                  C. Bannwarth, S. Ehlert          DFT functionals, gCP, sTDA/sTD-DF
   Ed Valeev, F. Pavosevic, A. Kumar             : LibInt (2-el integral package), F12 methods
   Garnet Chan, S. Sharma, J. Yang, R. Olivares  : DMRG
   Ulf Ekstrom                                   : XCFun DFT Library
   Mihaly Kallay                                 : mrcc  (arbitrary order and MRCC methods)
   Jiri Pittner, Ondrej Demel                    : Mk-CCSD
   Frank Weinhold                                : gennbo (NPA and NBO analysis)
   Christopher J. Cramer and Donald G. Truhlar   : smd solvation model
   Lars Goerigk                                  : TD-DFT with DH, B97 family of functionals
   V. Asgeirsson, H. Jonsson                     : NEB implementation
   FAccTs GmbH                                   : IRC, NEB, NEB-TS, DLPNO-Multilevel, CI-OPT
                                                   MM, QMMM, 2- and 3-layer-ONIOM, Crystal-QMMM,
                                                   LR-CPCM, SF, NACMEs, symmetry and pop. for TD-DFT,
                                                   nearIR, NL-DFT gradient (VV10), updates on ESD,
                                                   ML-optimized integration grids
   S Lehtola, MJT Oliveira, MAL Marques          : LibXC Library
   Liviu Ungur et al                             : ANISO software


 Your calculation uses the libint2 library for the computation of 2-el integrals
 For citations please refer to: http://libint.valeyev.net

 Your ORCA version has been built with support for libXC version: 5.1.0
 For citations please refer to: https://tddft.org/programs/libxc/

 This ORCA versions uses:
   CBLAS   interface :  Fast vector & matrix operations
   LAPACKE interface :  Fast linear algebra routines
   SCALAPACK package :  Parallel linear algebra routines
   Shared memory     :  Shared parallel matrices
   BLAS/LAPACK       :  OpenBLAS 0.3.15  USE64BITINT DYNAMIC_ARCH NO_AFFINITY Haswell SINGLE_THREADED
        Core in use  :  Haswell
   Copyright (c) 2011-2014, The OpenBLAS Project


XCFun DFT library Copyright 2009-2010 Ulf Ekstrom and contributors.
See http://admol.org/xcfun for more information.
This is free software; see the source code for copying conditions.
There is ABSOLUTELY NO WARRANTY; not even for MERCHANTABILITY or FITNESS FOR A PARTICULAR PURPOSE.
For details see the documentation.
Scientific users of this library should cite U. Ekstrom, L. Visscher, R. Bast, A. J. Thorvaldsen and K. Ruud;
J.Chem.Theor.Comp. 2010, DOI: 10.1021/ct100117s
XCFun Version 0.99 

================================================================================

----- Orbital basis set information -----
Your calculation utilizes the basis: cc-pVDZ 
       H, B-Ne : Obtained from the ccRepo (grant-hill.group.shef.ac.uk/ccrepo) Feb. 2017
                 T. H. Dunning, Jr., J. Chem. Phys. 90, 1007 (1989)
            He : Obtained from the ccRepo (grant-hill.group.shef.ac.uk/ccrepo) Feb. 2017
                 D. E. Woon, T. H. Dunning, Jr., J. Chem. Phys. 100, 2975 (1994)
  Li-Be, Na-Mg : Obtained from the ccRepo (grant-hill.group.shef.ac.uk/ccrepo) Feb. 2017
                 B. P. Prascher, D. E. Woon, K. A. Peterson, T. H. Dunning, Jr., A. K. Wilson, Theor. Chem. Acc. 128, 69 (2011)
         Al-Ar : Obtained from the ccRepo (grant-hill.group.shef.ac.uk/ccrepo) Feb. 2017
                 D. E. Woon, T. H. Dunning, Jr., J. Chem. Phys. 98, 1358 (1993)
            Ca : Obtained from the Peterson Research Group Website (tyr0.chem.wsu.edu/~kipeters) Feb. 2017
                 J. Koput, K. A. Peterson, J. Phys. Chem. 106, 9595 (2002)
         Sc-Zn : Obtained from the ccRepo (grant-hill.group.shef.ac.uk/ccrepo) Feb. 2017
                 N. B. Balabanov, K. A. Peterson, J. Chem. Phys. 123, 064107 (2005)
                 N. B. Balabanov, K. A. Peterson, J. Chem. Phys. 125, 074110 (2006)
         Ga-Kr : Obtained from the ccRepo (grant-hill.group.shef.ac.uk/ccrepo) Feb. 2017
                 A. K. Wilson, D. E. Woon, K. A. Peterson, T. H. Dunning, Jr., J. Chem. Phys. 110, 7667 (1999)

----- AuxJ basis set information -----
Your calculation utilizes the auxiliary basis: def2/J
   F. Weigend, Phys. Chem. Chem. Phys. 8, 1057 (2006).

================================================================================
                                        WARNINGS
                       Please study these warnings very carefully!
================================================================================

INFO   : Checking CIS options ...

WARNING: CIS/ROCIS methods need fully converged wavefunctions
  ===> : Setting SCFConvForced true
         You can overwrite this default with %scf ConvForced false 


INFO   : the flag for use of the SHARK integral package has been found!

================================================================================
                                       INPUT FILE
================================================================================
NAME = xanthine_spectra_tda.in
|  1> ! cam-b3lyp cc-pvdz 
|  2> 
|  3> %tddft
|  4>  nroots 10
|  5>  tda True
|  6>  DoNTO true
|  7> end
|  8> 
|  9> *xyz 0 1 
| 10>   N   -3.49625749984890     -0.54351512630179     -0.11554951608752
| 11>   C   -2.27944573006385      0.15072455178017     -0.17713103274117
| 12>   C   -1.18030432953264     -0.77684697291509     -0.10895502451614
| 13>   C   -1.34553410485723     -2.13599963068808      0.00132786507386
| 14>   N   -2.59811167650130     -2.69733962352140      0.05294006305725
| 15>   C   -3.73657523067804     -1.91510576369308     -0.00331858769343
| 16>   N   -0.15849666612666     -2.78992525075400      0.04810064286190
| 17>   C   0.74050104923523     -1.82061099246457     -0.03449205526365
| 18>   N   0.18528486551705     -0.59161993529268     -0.13067388059916
| 19>   H   -4.33712883584091      0.02469362098660     -0.15501698985896
| 20>   H   -2.72848076074308     -3.69803299948650      0.13479937383861
| 21>   H   0.65830211484258      0.29950038260237     -0.20473570575656
| 22>   O   -2.22609253956805      1.36043385257748     -0.27339218287090
| 23>   O   -4.85672847030862     -2.37245554788581      0.04059224207945
| 24>   H   1.81689297557442     -1.97460679134362     -0.02766033352360
| 25> *
| 26> %pal
| 27>   nprocs 16
| 28>   end
| 29> 
| 30>                          ****END OF INPUT****
================================================================================

                       ****************************
                       * Single Point Calculation *
                       ****************************

---------------------------------
CARTESIAN COORDINATES (ANGSTROEM)
---------------------------------
  N     -3.496257   -0.543515   -0.115550
  C     -2.279446    0.150725   -0.177131
  C     -1.180304   -0.776847   -0.108955
  C     -1.345534   -2.136000    0.001328
  N     -2.598112   -2.697340    0.052940
  C     -3.736575   -1.915106   -0.003319
  N     -0.158497   -2.789925    0.048101
  C      0.740501   -1.820611   -0.034492
  N      0.185285   -0.591620   -0.130674
  H     -4.337129    0.024694   -0.155017
  H     -2.728481   -3.698033    0.134799
  H      0.658302    0.299500   -0.204736
  O     -2.226093    1.360434   -0.273392
  O     -4.856728   -2.372456    0.040592
  H      1.816893   -1.974607   -0.027660

----------------------------
CARTESIAN COORDINATES (A.U.)
----------------------------
  NO LB      ZA    FRAG     MASS         X           Y           Z
   0 N     7.0000    0    14.007   -6.606969   -1.027095   -0.218357
   1 C     6.0000    0    12.011   -4.307528    0.284828   -0.334729
   2 C     6.0000    0    12.011   -2.230452   -1.468028   -0.205895
   3 C     6.0000    0    12.011   -2.542691   -4.036454    0.002509
   4 N     7.0000    0    14.007   -4.909720   -5.097233    0.100042
   5 C     6.0000    0    12.011   -7.061104   -3.619025   -0.006271
   6 N     7.0000    0    14.007   -0.299515   -5.272195    0.090897
   7 C     6.0000    0    12.011    1.399344   -3.440456   -0.065181
   8 N     7.0000    0    14.007    0.350138   -1.118000   -0.246938
   9 H     1.0000    0     1.008   -8.195986    0.046664   -0.292940
  10 H     1.0000    0     1.008   -5.156081   -6.988270    0.254734
  11 H     1.0000    0     1.008    1.244011    0.565974   -0.386894
  12 O     8.0000    0    15.999   -4.206705    2.570847   -0.516636
  13 O     8.0000    0    15.999   -9.177887   -4.483291    0.076708
  14 H     1.0000    0     1.008    3.433430   -3.731466   -0.052270

--------------------------------
INTERNAL COORDINATES (ANGSTROEM)
--------------------------------
 N      0   0   0     0.000000000000     0.00000000     0.00000000
 C      1   0   0     1.402280962184     0.00000000     0.00000000
 C      2   1   0     1.439843296989   109.96171306     0.00000000
 C      3   2   1     1.373593513934   123.32717916   359.94051618
 N      4   3   2     1.373578166513   121.13684498     0.04188215
 C      5   4   3     1.382444975916   121.21169780   359.95672518
 N      4   3   2     1.356047303846   112.00149844   180.05088123
 C      7   4   3     1.324608839368   103.83153221     0.00000000
 N      8   7   4     1.352011454388   113.01144757     0.00000000
 H      1   2   3     1.015619744626   116.08764445   179.91056469
 H      5   4   3     1.012464457444   121.62635788   180.04090666
 H      9   8   7     1.011595716218   127.87475279   179.99370930
 O      2   1   3     1.214705464051   122.31923717   180.01930022
 O      6   5   4     1.210718904753   123.14043911   180.07430359
 H      8   7   4     1.087373421407   124.59752208   180.01328009

---------------------------
INTERNAL COORDINATES (A.U.)
---------------------------
 N      0   0   0     0.000000000000     0.00000000     0.00000000
 C      1   0   0     2.649926981340     0.00000000     0.00000000
 C      2   1   0     2.720909507072   109.96171306     0.00000000
 C      3   2   1     2.595715560666   123.32717916   359.94051618
 N      4   3   2     2.595686558243   121.13684498     0.04188215
 C      5   4   3     2.612442399696   121.21169780   359.95672518
 N      4   3   2     2.562558028912   112.00149844   180.05088123
 C      7   4   3     2.503147940977   103.83153221     0.00000000
 N      8   7   4     2.554931378718   113.01144757     0.00000000
 H      1   2   3     1.919243173546   116.08764445   179.91056469
 H      5   4   3     1.913280544899   121.62635788   180.04090666
 H      9   8   7     1.911638861900   127.87475279   179.99370930
 O      2   1   3     2.295460660435   122.31923717   180.01930022
 O      6   5   4     2.287927155145   123.14043911   180.07430359
 H      8   7   4     2.054837971764   124.59752208   180.01328009

---------------------
BASIS SET INFORMATION
---------------------
There are 4 groups of distinct atoms

 Group   1 Type N   : 17s4p1d contracted to 3s2p1d pattern {881/31/1}
 Group   2 Type C   : 17s4p1d contracted to 3s2p1d pattern {881/31/1}
 Group   3 Type H   : 4s1p contracted to 2s1p pattern {31/1}
 Group   4 Type O   : 17s4p1d contracted to 3s2p1d pattern {881/31/1}

Atom   0N    basis set group =>   1
Atom   1C    basis set group =>   2
Atom   2C    basis set group =>   2
Atom   3C    basis set group =>   2
Atom   4N    basis set group =>   1
Atom   5C    basis set group =>   2
Atom   6N    basis set group =>   1
Atom   7C    basis set group =>   2
Atom   8N    basis set group =>   1
Atom   9H    basis set group =>   3
Atom  10H    basis set group =>   3
Atom  11H    basis set group =>   3
Atom  12O    basis set group =>   4
Atom  13O    basis set group =>   4
Atom  14H    basis set group =>   3
---------------------------------
AUXILIARY/J BASIS SET INFORMATION
---------------------------------
There are 4 groups of distinct atoms

 Group   1 Type N   : 12s5p4d2f1g contracted to 6s4p3d1f1g pattern {711111/2111/211/2/1}
 Group   2 Type C   : 12s5p4d2f1g contracted to 6s4p3d1f1g pattern {711111/2111/211/2/1}
 Group   3 Type H   : 5s2p1d contracted to 3s1p1d pattern {311/2/1}
 Group   4 Type O   : 12s5p4d2f1g contracted to 6s4p3d1f1g pattern {711111/2111/211/2/1}

Atom   0N    basis set group =>   1
Atom   1C    basis set group =>   2
Atom   2C    basis set group =>   2
Atom   3C    basis set group =>   2
Atom   4N    basis set group =>   1
Atom   5C    basis set group =>   2
Atom   6N    basis set group =>   1
Atom   7C    basis set group =>   2
Atom   8N    basis set group =>   1
Atom   9H    basis set group =>   3
Atom  10H    basis set group =>   3
Atom  11H    basis set group =>   3
Atom  12O    basis set group =>   4
Atom  13O    basis set group =>   4
Atom  14H    basis set group =>   3


           ************************************************************
           *        Program running with 16 parallel MPI-processes    *
           *              working on a common directory               *
           ************************************************************
------------------------------------------------------------------------------
                           ORCA GTO INTEGRAL CALCULATION
                           -- RI-GTO INTEGRALS CHOSEN --
------------------------------------------------------------------------------
------------------------------------------------------------------------------
                   ___                                                        
                  /   \      - P O W E R E D   B Y -                         
                 /     \                                                     
                 |  |  |   _    _      __       _____    __    __             
                 |  |  |  | |  | |    /  \     |  _  \  |  |  /  |          
                  \  \/   | |  | |   /    \    | | | |  |  | /  /          
                 / \  \   | |__| |  /  /\  \   | |_| |  |  |/  /          
                |  |  |   |  __  | /  /__\  \  |    /   |      \           
                |  |  |   | |  | | |   __   |  |    \   |  |\   \          
                \     /   | |  | | |  |  |  |  | |\  \  |  | \   \       
                 \___/    |_|  |_| |__|  |__|  |_| \__\ |__|  \__/        
                                                                              
                      - O R C A' S   B I G   F R I E N D -                    
                                      &                                       
                       - I N T E G R A L  F E E D E R -                       
                                                                              
 v1 FN, 2020, v2 2021                                                         
------------------------------------------------------------------------------


Reading SHARK input file xanthine_spectra_tda.SHARKINP.tmp ... ok
----------------------
SHARK INTEGRAL PACKAGE
----------------------

Number of atoms                             ...     15
Number of basis functions                   ...    240
Number of shells                            ...    144
Maximum angular momentum                    ...      2
Integral batch strategy                     ... SHARK/LIBINT Hybrid
RI-J (if used) integral strategy            ... SPLIT-RIJ (Revised 2003 algorithm where possible)
Printlevel                                  ...      1
Contraction scheme used                     ... PARTIAL GENERAL contraction
Coulomb Range Separation                    ... NOT USED
Exchange Range Separation                   ... Long Range
   Mu parameter                             ...  0.330000
   Scaling (regular/separated)              ...  0.190000  0.460000
Finite Nucleus Model                        ... NOT USED
Auxiliary Coulomb fitting basis             ... AVAILABLE
   # of basis functions in Aux-J            ...    583
   # of shells in Aux-J                     ...    185
   Maximum angular momentum in Aux-J        ...      4
Auxiliary J/K fitting basis                 ... NOT available
Auxiliary Correlation fitting basis         ... NOT available
Auxiliary 'external' fitting basis          ... NOT available
Integral threshold                          ...     1.000000e-10
Primitive cut-off                           ...     1.000000e-11
Primitive pair pre-selection threshold      ...     1.000000e-11

Calculating pre-screening integrals         ... done (  0.1 sec) Dimension = 144
Calculating pre-screening integrals (ORCA)  ... done (  0.1 sec) Dimension = 78
Organizing shell pair data                  ... done (  0.1 sec)
Shell pair information
Total number of shell pairs                 ...     10440
Shell pairs after pre-screening             ...      6608
Total number of primitive shell pairs       ...     15270
Primitive shell pairs kept                  ...      8822
          la=0 lb=0:   2754 shell pairs
          la=1 lb=0:   2292 shell pairs
          la=1 lb=1:    333 shell pairs
          la=2 lb=0:    900 shell pairs
          la=2 lb=1:    268 shell pairs
          la=2 lb=2:     61 shell pairs

Calculating one electron integrals          ... done (  0.0 sec)
Calculating RI/J V-Matrix + Cholesky decomp.... done (  0.0 sec)
Calculating Nuclear repulsion               ... done (  0.0 sec) ENN=    597.622201159295 Eh

SHARK setup successfully completed in   0.5 seconds

Maximum memory used throughout the entire GTOINT-calculation: 18.1 MB


           ************************************************************
           *        Program running with 16 parallel MPI-processes    *
           *              working on a common directory               *
           ************************************************************
-------------------------------------------------------------------------------
                                 ORCA SCF
-------------------------------------------------------------------------------

------------
SCF SETTINGS
------------
Hamiltonian:
 Density Functional     Method          .... DFT(GTOs)
 Exchange Functional    Exchange        .... WB88
 Correlation Functional Correlation     .... LYP
 LDA part of GGA corr.  LDAOpt          .... VWN-5
 Gradients option       PostSCFGGA      .... off
 Hybrid DFT is turned on
   Fraction HF Exchange ScalHFX         ....  0.190000
   Scaling of DF-GGA-X  ScalDFX         ....  0.350000
   Scaling of DF-GGA-C  ScalDFC         ....  0.810000
   Scaling of DF-LDA-C  ScalLDAC        ....  1.000000
   Perturbative correction              ....  0.000000
   Density functional embedding theory  .... OFF
 Long-range corrected/Screened/Range-Separated Hybrid DFT is turned on
   Amount of maximum screened exact exchange              ....  0.460000
   Range separation parameter mu (erf(mu*r12)/r12)        ....  0.330000
 RI-approximation to the Coulomb term is turned on
   Number of AuxJ basis functions       .... 583
   RIJ-COSX (HFX calculated with COS-X)).... on


General Settings:
 Integral files         IntName         .... xanthine_spectra_tda
 Hartree-Fock type      HFTyp           .... RHF
 Total Charge           Charge          ....    0
 Multiplicity           Mult            ....    1
 Number of Electrons    NEL             ....   78
 Basis Dimension        Dim             ....  174
 Nuclear Repulsion      ENuc            ....    597.6222011593 Eh

Convergence Acceleration:
 DIIS                   CNVDIIS         .... on
   Start iteration      DIISMaxIt       ....    12
   Startup error        DIISStart       ....  0.200000
   # of expansion vecs  DIISMaxEq       ....     5
   Bias factor          DIISBfac        ....   1.050
   Max. coefficient     DIISMaxC        ....  10.000
 Trust-Rad. Augm. Hess. CNVTRAH         .... auto
   Auto Start mean grad. ratio tolernc. ....  1.125000
   Auto Start start iteration           ....    20
   Auto Start num. interpolation iter.  ....    10
   Max. Number of Micro iterations      ....    16
   Max. Number of Macro iterations      .... Maxiter - #DIIS iter
   Number of Davidson start vectors     ....     2
   Converg. threshold I  (grad. norm)   ....   5.000e-05
   Converg. threshold II (energy diff.) ....   1.000e-06
   Grad. Scal. Fac. for Micro threshold ....   0.100
   Minimum threshold for Micro iter.    ....   0.010
   NR start threshold (gradient norm)   ....   0.001
   Initial trust radius                 ....   0.400
   Minimum AH scaling param. (alpha)    ....   1.000
   Maximum AH scaling param. (alpha)    .... 1000.000
   Orbital update algorithm             .... Taylor
   White noise on init. David. guess    .... on
   Maximum white noise                  ....   0.010
   Quad. conv. algorithm                .... NR
 SOSCF                  CNVSOSCF        .... on
   Start iteration      SOSCFMaxIt      ....   150
   Startup grad/error   SOSCFStart      ....  0.003300
 Level Shifting         CNVShift        .... on
   Level shift para.    LevelShift      ....    0.2500
   Turn off err/grad.   ShiftErr        ....    0.0010
 Zerner damping         CNVZerner       .... off
 Static damping         CNVDamp         .... on
   Fraction old density DampFac         ....    0.7000
   Max. Damping (<1)    DampMax         ....    0.9800
   Min. Damping (>=0)   DampMin         ....    0.0000
   Turn off err/grad.   DampErr         ....    0.1000
 Fernandez-Rico         CNVRico         .... off

SCF Procedure:
 Maximum # iterations   MaxIter         ....   125
 SCF integral mode      SCFMode         .... Direct
   Integral package                     .... SHARK and LIBINT hybrid scheme
 Reset frequency        DirectResetFreq ....    20
 Integral Threshold     Thresh          ....  1.000e-10 Eh
 Primitive CutOff       TCut            ....  1.000e-11 Eh

Convergence Tolerance:
 Convergence Check Mode ConvCheckMode   .... Total+1el-Energy
 Convergence forced     ConvForced      .... 1
 Energy Change          TolE            ....  1.000e-06 Eh
 1-El. energy change                    ....  1.000e-03 Eh
 Orbital Gradient       TolG            ....  5.000e-05
 Orbital Rotation angle TolX            ....  5.000e-05
 DIIS Error             TolErr          ....  1.000e-06


Diagonalization of the overlap matrix:
Smallest eigenvalue                        ... 1.001e-03
Time for diagonalization                   ...    0.007 sec
Threshold for overlap eigenvalues          ... 1.000e-08
Number of eigenvalues below threshold      ... 0
Time for construction of square roots      ...    0.004 sec
Total time needed                          ...    0.011 sec

Time for model grid setup =    0.105 sec

------------------------------
INITIAL GUESS: MODEL POTENTIAL
------------------------------
Loading Hartree-Fock densities                     ... done
Calculating cut-offs                               ... done
Initializing the effective Hamiltonian             ... done
Setting up the integral package (SHARK)            ... done
Starting the Coulomb interaction                   ... done (   0.0 sec)
Reading the grid                                   ... done
Mapping shells                                     ... done
Starting the XC term evaluation                    ... done (   0.0 sec)
  promolecular density results
     # of electrons  =     78.000104585
     EX              =    -69.321408230
     EC              =     -2.670996744
     EX+EC           =    -71.992404974
Transforming the Hamiltonian                       ... done (   0.0 sec)
Diagonalizing the Hamiltonian                      ... done (   0.0 sec)
Back transforming the eigenvectors                 ... done (   0.0 sec)
Now organizing SCF variables                       ... done
                      ------------------
                      INITIAL GUESS DONE (   0.2 sec)
                      ------------------
-------------------
DFT GRID GENERATION
-------------------

General Integration Accuracy     IntAcc      ... 4.388
Radial Grid Type                 RadialGrid  ... OptM3 with GC (2021)
Angular Grid (max. ang.)         AngularGrid ... 4 (Lebedev-302)
Angular grid pruning method      GridPruning ... 4 (adaptive)
Weight generation scheme         WeightScheme... Becke
Basis function cutoff            BFCut       ... 1.0000e-10
Integration weight cutoff        WCut        ... 1.0000e-14
Angular grids for H and He will be reduced by one unit
Partially contracted basis set               ... off
Rotationally invariant grid construction     ... off

Total number of grid points                  ...    79160
Total number of batches                      ...     1245
Average number of points per batch           ...       63
Average number of grid points per atom       ...     5277
Time for grid setup =    0.606 sec

--------------------
COSX GRID GENERATION
--------------------

GRIDX 1
-------
General Integration Accuracy     IntAcc      ... 3.816
Radial Grid Type                 RadialGrid  ... OptM3 with GC (2021)
Angular Grid (max. ang.)         AngularGrid ... 1 (Lebedev-50)
Angular grid pruning method      GridPruning ... 4 (adaptive)
Weight generation scheme         WeightScheme... Becke
Basis function cutoff            BFCut       ... 1.0000e-10
Integration weight cutoff        WCut        ... 1.0000e-14
Angular grids for H and He will be reduced by one unit
Partially contracted basis set               ... on
Rotationally invariant grid construction     ... off

Total number of grid points                  ...    10061
Total number of batches                      ...      164
Average number of points per batch           ...       61
Average number of grid points per atom       ...      671
UseSFitting                                  ... on

GRIDX 2
-------
General Integration Accuracy     IntAcc      ... 4.020
Radial Grid Type                 RadialGrid  ... OptM3 with GC (2021)
Angular Grid (max. ang.)         AngularGrid ... 2 (Lebedev-110)
Angular grid pruning method      GridPruning ... 4 (adaptive)
Weight generation scheme         WeightScheme... Becke
Basis function cutoff            BFCut       ... 1.0000e-10
Integration weight cutoff        WCut        ... 1.0000e-14
Angular grids for H and He will be reduced by one unit
Partially contracted basis set               ... on
Rotationally invariant grid construction     ... off

Total number of grid points                  ...    22890
Total number of batches                      ...      365
Average number of points per batch           ...       62
Average number of grid points per atom       ...     1526
UseSFitting                                  ... on

GRIDX 3
-------
General Integration Accuracy     IntAcc      ... 4.338
Radial Grid Type                 RadialGrid  ... OptM3 with GC (2021)
Angular Grid (max. ang.)         AngularGrid ... 3 (Lebedev-194)
Angular grid pruning method      GridPruning ... 4 (adaptive)
Weight generation scheme         WeightScheme... Becke
Basis function cutoff            BFCut       ... 1.0000e-10
Integration weight cutoff        WCut        ... 1.0000e-14
Angular grids for H and He will be reduced by one unit
Partially contracted basis set               ... on
Rotationally invariant grid construction     ... off

Total number of grid points                  ...    50540
Total number of batches                      ...      798
Average number of points per batch           ...       63
Average number of grid points per atom       ...     3369
UseSFitting                                  ... on

Time for X-Grid setup             =    0.467 sec

 re-compute Schwartz prescreening matrix in partically contracted basis (1) ...done (   0.147 sec)
--------------
SCF ITERATIONS
--------------
ITER       Energy         Delta-E        Max-DP      RMS-DP      [F,P]     Damp
               ***  Starting incremental Fock matrix formation  ***
  0   -561.9609921376   0.000000000000 0.10978582  0.00266059  0.2652538 0.7000
  1   -562.0916420429  -0.130649905284 0.07769261  0.00183273  0.1170266 0.7000
                               ***Turning on DIIS***
  2   -562.1434718814  -0.051829838504 0.09817809  0.00290658  0.0439288 0.0000
  3   -562.2333541683  -0.089882286877 0.05697347  0.00118586  0.0613658 0.0000
  4   -562.2473116320  -0.013957463694 0.01002139  0.00026316  0.0115412 0.0000
  5   -562.2481017670  -0.000790135060 0.00449002  0.00009949  0.0037414 0.0000
                      *** Initiating the SOSCF procedure ***
                           *** Shutting down DIIS ***
                      *** Re-Reading the Fockian *** 
                      *** Removing any level shift *** 
ITER      Energy       Delta-E        Grad      Rot      Max-DP    RMS-DP
  6   -562.24817659  -0.0000748200  0.000811  0.000811  0.002279  0.000066
               *** Restarting incremental Fock matrix formation ***
  7   -562.24821582  -0.0000392304  0.000320  0.000725  0.001403  0.000042
  8   -562.24821519   0.0000006321  0.000423  0.000697  0.000824  0.000019
  9   -562.24822087  -0.0000056841  0.000057  0.000232  0.000236  0.000006
                 **** Energy Check signals convergence ****
              ***Rediagonalizing the Fockian in SOSCF/NRSCF***

               *****************************************************
               *                     SUCCESS                       *
               *           SCF CONVERGED AFTER  10 CYCLES          *
               *****************************************************

Old exchange energy                            =    -19.537723258 Eh
New exchange energy                            =    -19.537738208 Eh
Exchange energy change after final integration =     -0.000014950 Eh
Total energy after final integration           =   -562.248235824 Eh
Final COS-X integration done in                =     3.628 sec

----------------
TOTAL SCF ENERGY
----------------

Total Energy       :         -562.24823582 Eh          -15299.55231 eV

Components:
Nuclear Repulsion  :          597.62220116 Eh           16262.12684 eV
Electronic Energy  :        -1159.87043698 Eh          -31561.67916 eV
One Electron Energy:        -1950.30558432 Eh          -53070.51300 eV
Two Electron Energy:          790.43514733 Eh           21508.83385 eV
Max COSX asymmetry :            0.00000199 Eh               0.00005 eV

Virial components:
Potential Energy   :        -1121.31958337 Eh          -30512.65710 eV
Kinetic Energy     :          559.07134754 Eh           15213.10479 eV
Virial Ratio       :            2.00568244


DFT components:
N(Alpha)           :       38.999997847332 electrons
N(Beta)            :       38.999997847332 electrons
N(Total)           :       77.999995694663 electrons
E(XC)              :      -53.856777049246 Eh       
DFET-embed. en.    :        0.000000000000 Eh       

---------------
SCF CONVERGENCE
---------------

  Last Energy change         ...   -4.7472e-09  Tolerance :   1.0000e-06
  Last MAX-Density change    ...    5.7732e-15  Tolerance :   1.0000e-05
  Last RMS-Density change    ...    6.8869e-17  Tolerance :   1.0000e-06
  Last Orbital Gradient      ...    4.9864e-05  Tolerance :   5.0000e-05
  Last Orbital Rotation      ...    5.6245e-05  Tolerance :   5.0000e-05

             **** THE GBW FILE WAS UPDATED (xanthine_spectra_tda.gbw) ****
             **** DENSITY xanthine_spectra_tda.scfp WAS UPDATED ****
             **** ENERGY FILE WAS UPDATED (xanthine_spectra_tda.en.tmp) ****
             **** THE GBW FILE WAS UPDATED (xanthine_spectra_tda.gbw) ****
             **** DENSITY xanthine_spectra_tda.scfp WAS UPDATED ****
----------------
ORBITAL ENERGIES
----------------

  NO   OCC          E(Eh)            E(eV) 
   0   2.0000     -19.197708      -522.3962 
   1   2.0000     -19.190506      -522.2002 
   2   2.0000     -14.491639      -394.3376 
   3   2.0000     -14.463846      -393.5813 
   4   2.0000     -14.455241      -393.3471 
   5   2.0000     -14.414702      -392.2440 
   6   2.0000     -10.413807      -283.3741 
   7   2.0000     -10.392065      -282.7825 
   8   2.0000     -10.353840      -281.7423 
   9   2.0000     -10.348776      -281.6045 
  10   2.0000     -10.306885      -280.4646 
  11   2.0000      -1.164404       -31.6850 
  12   2.0000      -1.139274       -31.0012 
  13   2.0000      -1.130537       -30.7635 
  14   2.0000      -1.056280       -28.7428 
  15   2.0000      -1.012228       -27.5441 
  16   2.0000      -0.980152       -26.6713 
  17   2.0000      -0.869433       -23.6585 
  18   2.0000      -0.762848       -20.7582 
  19   2.0000      -0.748679       -20.3726 
  20   2.0000      -0.718028       -19.5385 
  21   2.0000      -0.701801       -19.0970 
  22   2.0000      -0.648864       -17.6565 
  23   2.0000      -0.606618       -16.5069 
  24   2.0000      -0.571343       -15.5470 
  25   2.0000      -0.569677       -15.5017 
  26   2.0000      -0.548906       -14.9365 
  27   2.0000      -0.527584       -14.3563 
  28   2.0000      -0.521877       -14.2010 
  29   2.0000      -0.506082       -13.7712 
  30   2.0000      -0.495448       -13.4818 
  31   2.0000      -0.482980       -13.1425 
  32   2.0000      -0.417404       -11.3581 
  33   2.0000      -0.380420       -10.3518 
  34   2.0000      -0.361071        -9.8252 
  35   2.0000      -0.357402        -9.7254 
  36   2.0000      -0.347590        -9.4584 
  37   2.0000      -0.331370        -9.0170 
  38   2.0000      -0.287053        -7.8111 
  39   0.0000       0.008928         0.2429 
  40   0.0000       0.073683         2.0050 
  41   0.0000       0.083688         2.2773 
  42   0.0000       0.083941         2.2841 
  43   0.0000       0.106875         2.9082 
  44   0.0000       0.127457         3.4683 
  45   0.0000       0.134287         3.6541 
  46   0.0000       0.205593         5.5945 
  47   0.0000       0.226392         6.1604 
  48   0.0000       0.235542         6.4094 
  49   0.0000       0.268861         7.3161 
  50   0.0000       0.290215         7.8971 
  51   0.0000       0.295416         8.0387 
  52   0.0000       0.305952         8.3254 
  53   0.0000       0.330668         8.9979 
  54   0.0000       0.373901        10.1744 
  55   0.0000       0.389246        10.5919 
  56   0.0000       0.403240        10.9727 
  57   0.0000       0.453406        12.3378 
  58   0.0000       0.466552        12.6955 
  59   0.0000       0.476883        12.9766 
  60   0.0000       0.497882        13.5481 
  61   0.0000       0.513282        13.9671 
  62   0.0000       0.517087        14.0707 
  63   0.0000       0.530523        14.4363 
  64   0.0000       0.544389        14.8136 
  65   0.0000       0.568325        15.4649 
  66   0.0000       0.580368        15.7926 
  67   0.0000       0.604994        16.4627 
  68   0.0000       0.610032        16.5998 
  69   0.0000       0.643891        17.5212 
  70   0.0000       0.671389        18.2694 
  71   0.0000       0.672407        18.2971 
  72   0.0000       0.685221        18.6458 
  73   0.0000       0.697397        18.9771 
  74   0.0000       0.726562        19.7708 
  75   0.0000       0.748386        20.3646 
  76   0.0000       0.761776        20.7290 
  77   0.0000       0.792549        21.5664 
  78   0.0000       0.818718        22.2784 
  79   0.0000       0.822793        22.3893 
  80   0.0000       0.845956        23.0196 
  81   0.0000       0.847181        23.0530 
  82   0.0000       0.881426        23.9848 
  83   0.0000       0.898442        24.4479 
  84   0.0000       0.908389        24.7185 
  85   0.0000       0.922255        25.0958 
  86   0.0000       0.935341        25.4519 
  87   0.0000       0.952667        25.9234 
  88   0.0000       0.983013        26.7491 
  89   0.0000       1.021866        27.8064 
  90   0.0000       1.029868        28.0241 
  91   0.0000       1.050822        28.5943 
  92   0.0000       1.097106        29.8538 
  93   0.0000       1.118939        30.4479 
  94   0.0000       1.123917        30.5833 
  95   0.0000       1.126192        30.6452 
  96   0.0000       1.135840        30.9078 
  97   0.0000       1.149331        31.2749 
  98   0.0000       1.159916        31.5629 
  99   0.0000       1.176381        32.0110 
 100   0.0000       1.193595        32.4794 
 101   0.0000       1.199604        32.6429 
 102   0.0000       1.239126        33.7183 
 103   0.0000       1.239382        33.7253 
 104   0.0000       1.241610        33.7859 
 105   0.0000       1.268251        34.5109 
 106   0.0000       1.354115        36.8473 
 107   0.0000       1.389910        37.8214 
 108   0.0000       1.425372        38.7863 
 109   0.0000       1.481938        40.3256 
 110   0.0000       1.495304        40.6893 
 111   0.0000       1.541427        41.9444 
 112   0.0000       1.561351        42.4865 
 113   0.0000       1.585850        43.1532 
 114   0.0000       1.607525        43.7430 
 115   0.0000       1.632680        44.4275 
 116   0.0000       1.666015        45.3346 
 117   0.0000       1.673715        45.5441 
 118   0.0000       1.696252        46.1574 
 119   0.0000       1.705831        46.4180 
 120   0.0000       1.729347        47.0579 
 121   0.0000       1.738455        47.3058 
 122   0.0000       1.747842        47.5612 
 123   0.0000       1.780781        48.4575 
 124   0.0000       1.792343        48.7721 
 125   0.0000       1.812682        49.3256 
 126   0.0000       1.848810        50.3087 
 127   0.0000       1.896072        51.5947 
 128   0.0000       1.917506        52.1780 
 129   0.0000       1.923603        52.3439 
 130   0.0000       1.947939        53.0061 
 131   0.0000       1.971799        53.6554 
 132   0.0000       2.013732        54.7964 
 133   0.0000       2.038017        55.4573 
 134   0.0000       2.075518        56.4777 
 135   0.0000       2.112560        57.4857 
 136   0.0000       2.143039        58.3151 
 137   0.0000       2.150112        58.5075 
 138   0.0000       2.189514        59.5797 
 139   0.0000       2.212771        60.2126 
 140   0.0000       2.235712        60.8368 
 141   0.0000       2.269741        61.7628 
 142   0.0000       2.303687        62.6865 
 143   0.0000       2.319552        63.1182 
 144   0.0000       2.324251        63.2461 
 145   0.0000       2.374276        64.6073 
 146   0.0000       2.413431        65.6728 
 147   0.0000       2.471669        67.2575 
 148   0.0000       2.477410        67.4137 
 149   0.0000       2.484975        67.6196 
 150   0.0000       2.516588        68.4798 
 151   0.0000       2.551407        69.4273 
 152   0.0000       2.573667        70.0330 
 153   0.0000       2.607307        70.9484 
 154   0.0000       2.654516        72.2331 
 155   0.0000       2.671824        72.7040 
 156   0.0000       2.695295        73.3427 
 157   0.0000       2.769089        75.3507 
 158   0.0000       2.770941        75.4011 
 159   0.0000       2.806961        76.3813 
 160   0.0000       2.848387        77.5085 
 161   0.0000       2.853062        77.6358 
 162   0.0000       2.870285        78.1044 
 163   0.0000       3.010960        81.9324 
 164   0.0000       3.058816        83.2346 
 165   0.0000       3.141191        85.4762 
 166   0.0000       3.156223        85.8852 
 167   0.0000       3.212647        87.4206 
 168   0.0000       3.366343        91.6029 
 169   0.0000       3.476731        94.6066 
 170   0.0000       3.512145        95.5703 
 171   0.0000       3.544862        96.4606 
 172   0.0000       3.571570        97.1874 
 173   0.0000       3.649189        99.2995 

                    ********************************
                    * MULLIKEN POPULATION ANALYSIS *
                    ********************************

-----------------------
MULLIKEN ATOMIC CHARGES
-----------------------
   0 N :   -0.117534
   1 C :    0.140093
   2 C :   -0.009427
   3 C :    0.143014
   4 N :   -0.113383
   5 C :    0.172677
   6 N :   -0.198603
   7 C :    0.141966
   8 N :   -0.064494
   9 H :    0.118217
  10 H :    0.113114
  11 H :    0.113970
  12 O :   -0.226807
  13 O :   -0.238929
  14 H :    0.026127
Sum of atomic charges:   -0.0000000

--------------------------------
MULLIKEN REDUCED ORBITAL CHARGES
--------------------------------
  0 N s       :     3.381864  s :     3.381864
      pz      :     1.614682  p :     3.711058
      px      :     1.063835
      py      :     1.032541
      dz2     :     0.002460  d :     0.024611
      dxz     :     0.002461
      dyz     :     0.003558
      dx2y2   :     0.007814
      dxy     :     0.008318
  1 C s       :     3.021872  s :     3.021872
      pz      :     0.830539  p :     2.625294
      px      :     0.927081
      py      :     0.867674
      dz2     :     0.009205  d :     0.212741
      dxz     :     0.019831
      dyz     :     0.049568
      dx2y2   :     0.044212
      dxy     :     0.089924
  2 C s       :     3.090775  s :     3.090775
      pz      :     1.167899  p :     2.820864
      px      :     0.764378
      py      :     0.888588
      dz2     :     0.006658  d :     0.097787
      dxz     :     0.019791
      dyz     :     0.011551
      dx2y2   :     0.032311
      dxy     :     0.027476
  3 C s       :     3.032196  s :     3.032196
      pz      :     0.974956  p :     2.672967
      px      :     0.744274
      py      :     0.953737
      dz2     :     0.008121  d :     0.151824
      dxz     :     0.033512
      dyz     :     0.020161
      dx2y2   :     0.045822
      dxy     :     0.044207
  4 N s       :     3.379981  s :     3.379981
      pz      :     1.623332  p :     3.705430
      px      :     1.041755
      py      :     1.040343
      dz2     :     0.002427  d :     0.027971
      dxz     :     0.006166
      dyz     :     0.001827
      dx2y2   :     0.008821
      dxy     :     0.008729
  5 C s       :     2.959531  s :     2.959531
      pz      :     0.849197  p :     2.620051
      px      :     0.869862
      py      :     0.900992
      dz2     :     0.010535  d :     0.247741
      dxz     :     0.052243
      dyz     :     0.029558
      dx2y2   :     0.077437
      dxy     :     0.077968
  6 N s       :     3.495909  s :     3.495909
      pz      :     1.200033  p :     3.660832
      px      :     0.982469
      py      :     1.478331
      dz2     :     0.004826  d :     0.041863
      dxz     :     0.006281
      dyz     :     0.007775
      dx2y2   :     0.007261
      dxy     :     0.015720
  7 C s       :     3.057642  s :     3.057642
      pz      :     0.974687  p :     2.671298
      px      :     0.871759
      py      :     0.824852
      dz2     :     0.006645  d :     0.129094
      dxz     :     0.011468
      dyz     :     0.028051
      dx2y2   :     0.049590
      dxy     :     0.033341
  8 N s       :     3.384794  s :     3.384794
      pz      :     1.513589  p :     3.643613
      px      :     1.104855
      py      :     1.025169
      dz2     :     0.002469  d :     0.036088
      dxz     :     0.008897
      dyz     :     0.003866
      dx2y2   :     0.010032
      dxy     :     0.010824
  9 H s       :     0.829327  s :     0.829327
      pz      :     0.012287  p :     0.052456
      px      :     0.025106
      py      :     0.015063
 10 H s       :     0.833090  s :     0.833090
      pz      :     0.013644  p :     0.053796
      px      :     0.007210
      py      :     0.032941
 11 H s       :     0.831881  s :     0.831881
      pz      :     0.013180  p :     0.054149
      px      :     0.012583
      py      :     0.028386
 12 O s       :     3.705857  s :     3.705857
      pz      :     1.414176  p :     4.502303
      px      :     1.747852
      py      :     1.340274
      dz2     :     0.002218  d :     0.018647
      dxz     :     0.000049
      dyz     :     0.005692
      dx2y2   :     0.006786
      dxy     :     0.003902
 13 O s       :     3.705386  s :     3.705386
      pz      :     1.453122  p :     4.514397
      px      :     1.390903
      py      :     1.670373
      dz2     :     0.002290  d :     0.019145
      dxz     :     0.004966
      dyz     :     0.000841
      dx2y2   :     0.005535
      dxy     :     0.005513
 14 H s       :     0.945855  s :     0.945855
      pz      :     0.005871  p :     0.028018
      px      :     0.019221
      py      :     0.002927


                     *******************************
                     * LOEWDIN POPULATION ANALYSIS *
                     *******************************

----------------------
LOEWDIN ATOMIC CHARGES
----------------------
   0 N :    0.129612
   1 C :   -0.146836
   2 C :   -0.146510
   3 C :   -0.095398
   4 N :    0.149819
   5 C :   -0.164423
   6 N :   -0.020993
   7 C :   -0.053496
   8 N :    0.220654
   9 H :    0.081328
  10 H :    0.083368
  11 H :    0.085432
  12 O :   -0.069830
  13 O :   -0.079392
  14 H :    0.026665

-------------------------------
LOEWDIN REDUCED ORBITAL CHARGES
-------------------------------
  0 N s       :     3.003402  s :     3.003402
      pz      :     1.508271  p :     3.789022
      px      :     1.141502
      py      :     1.139248
      dz2     :     0.007394  d :     0.077965
      dxz     :     0.005195
      dyz     :     0.008035
      dx2y2   :     0.026411
      dxy     :     0.030930
  1 C s       :     2.808990  s :     2.808990
      pz      :     0.826424  p :     2.809265
      px      :     0.963083
      py      :     1.019758
      dz2     :     0.029198  d :     0.528582
      dxz     :     0.047894
      dyz     :     0.104704
      dx2y2   :     0.114074
      dxy     :     0.232711
  2 C s       :     2.794058  s :     2.794058
      pz      :     1.112287  p :     3.066874
      px      :     0.918645
      py      :     1.035942
      dz2     :     0.022791  d :     0.285579
      dxz     :     0.048624
      dyz     :     0.028384
      dx2y2   :     0.105897
      dxy     :     0.079882
  3 C s       :     2.783247  s :     2.783247
      pz      :     0.954533  p :     2.922517
      px      :     0.933217
      py      :     1.034768
      dz2     :     0.024767  d :     0.389633
      dxz     :     0.073669
      dyz     :     0.050740
      dx2y2   :     0.126919
      dxy     :     0.113539
  4 N s       :     2.974031  s :     2.974031
      pz      :     1.517521  p :     3.789731
      px      :     1.134067
      py      :     1.138144
      dz2     :     0.006602  d :     0.086419
      dxz     :     0.013868
      dyz     :     0.003595
      dx2y2   :     0.032182
      dxy     :     0.030172
  5 C s       :     2.797278  s :     2.797278
      pz      :     0.848873  p :     2.785518
      px      :     0.997769
      py      :     0.938876
      dz2     :     0.030959  d :     0.581627
      dxz     :     0.110703
      dyz     :     0.069151
      dx2y2   :     0.184494
      dxy     :     0.186320
  6 N s       :     3.169741  s :     3.169741
      pz      :     1.172375  p :     3.757049
      px      :     1.101184
      py      :     1.483490
      dz2     :     0.009846  d :     0.094202
      dxz     :     0.015454
      dyz     :     0.008741
      dx2y2   :     0.018978
      dxy     :     0.041184
  7 C s       :     2.824633  s :     2.824633
      pz      :     0.958688  p :     2.905171
      px      :     1.013200
      py      :     0.933283
      dz2     :     0.021001  d :     0.323692
      dxz     :     0.018174
      dyz     :     0.068312
      dx2y2   :     0.126538
      dxy     :     0.089667
  8 N s       :     2.965442  s :     2.965442
      pz      :     1.420109  p :     3.712257
      px      :     1.148683
      py      :     1.143465
      dz2     :     0.006119  d :     0.101647
      dxz     :     0.019530
      dyz     :     0.008003
      dx2y2   :     0.033456
      dxy     :     0.034540
  9 H s       :     0.781025  s :     0.781025
      pz      :     0.041030  p :     0.137647
      px      :     0.060215
      py      :     0.036402
 10 H s       :     0.777014  s :     0.777014
      pz      :     0.043467  p :     0.139618
      px      :     0.019094
      py      :     0.077056
 11 H s       :     0.776133  s :     0.776133
      pz      :     0.039416  p :     0.138435
      px      :     0.032852
      py      :     0.066167
 12 O s       :     3.481954  s :     3.481954
      pz      :     1.394347  p :     4.555809
      px      :     1.715439
      py      :     1.446023
      dz2     :     0.004659  d :     0.032068
      dxz     :     0.000065
      dyz     :     0.006866
      dx2y2   :     0.014148
      dxy     :     0.006329
 13 O s       :     3.481322  s :     3.481322
      pz      :     1.428936  p :     4.565503
      px      :     1.476908
      py      :     1.659659
      dz2     :     0.004833  d :     0.032567
      dxz     :     0.006013
      dyz     :     0.001011
      dx2y2   :     0.010437
      dxy     :     0.010272
 14 H s       :     0.891549  s :     0.891549
      pz      :     0.018207  p :     0.081786
      px      :     0.051910
      py      :     0.011669


                      *****************************
                      * MAYER POPULATION ANALYSIS *
                      *****************************

  NA   - Mulliken gross atomic population
  ZA   - Total nuclear charge
  QA   - Mulliken gross atomic charge
  VA   - Mayer's total valence
  BVA  - Mayer's bonded valence
  FA   - Mayer's free valence

  ATOM       NA         ZA         QA         VA         BVA        FA
  0 N      7.1175     7.0000    -0.1175     3.2685     3.2685    -0.0000
  1 C      5.8599     6.0000     0.1401     4.3910     4.3910     0.0000
  2 C      6.0094     6.0000    -0.0094     3.7094     3.7094     0.0000
  3 C      5.8570     6.0000     0.1430     4.0754     4.0754    -0.0000
  4 N      7.1134     7.0000    -0.1134     3.3516     3.3516     0.0000
  5 C      5.8273     6.0000     0.1727     4.5494     4.5494     0.0000
  6 N      7.1986     7.0000    -0.1986     3.2356     3.2356    -0.0000
  7 C      5.8580     6.0000     0.1420     4.0593     4.0593    -0.0000
  8 N      7.0645     7.0000    -0.0645     3.5834     3.5834     0.0000
  9 H      0.8818     1.0000     0.1182     1.0297     1.0297    -0.0000
 10 H      0.8869     1.0000     0.1131     1.0285     1.0285    -0.0000
 11 H      0.8860     1.0000     0.1140     1.0129     1.0129    -0.0000
 12 O      8.2268     8.0000    -0.2268     2.3932     2.3932     0.0000
 13 O      8.2389     8.0000    -0.2389     2.3842     2.3842    -0.0000
 14 H      0.9739     1.0000     0.0261     0.9968     0.9968     0.0000

  Mayer bond orders larger than 0.100000
B(  0-N ,  1-C ) :   1.1096 B(  0-N ,  5-C ) :   1.1158 B(  0-N ,  9-H ) :   0.9203 
B(  1-C ,  2-C ) :   1.0128 B(  1-C , 12-O ) :   2.2153 B(  2-C ,  3-C ) :   1.3529 
B(  2-C ,  8-N ) :   1.1581 B(  3-C ,  4-N ) :   1.1355 B(  3-C ,  6-N ) :   1.4816 
B(  4-N ,  5-C ) :   1.1497 B(  4-N , 10-H ) :   0.9283 B(  5-C , 13-O ) :   2.2130 
B(  6-N ,  7-C ) :   1.6122 B(  7-C ,  8-N ) :   1.3467 B(  7-C , 14-H ) :   0.9695 
B(  8-N , 11-H ) :   0.9473 

-------
TIMINGS
-------

Total SCF time: 0 days 0 hours 0 min 20 sec 

Total time                  ....      20.391 sec
Sum of individual times     ....      19.722 sec  ( 96.7%)

Fock matrix formation       ....      18.286 sec  ( 89.7%)
  Split-RI-J                ....       1.349 sec  (  7.4% of F)
  Chain of spheres X        ....      15.135 sec  ( 82.8% of F)
  XC integration            ....       1.713 sec  (  9.4% of F)
    Basis function eval.    ....       0.336 sec  ( 19.6% of XC)
    Density eval.           ....       0.175 sec  ( 10.2% of XC)
    XC-Functional eval.     ....       0.160 sec  (  9.4% of XC)
    XC-Potential eval.      ....       0.161 sec  (  9.4% of XC)
Diagonalization             ....       0.069 sec  (  0.3%)
Density matrix formation    ....       0.008 sec  (  0.0%)
Population analysis         ....       0.010 sec  (  0.1%)
Initial guess               ....       0.096 sec  (  0.5%)
Orbital Transformation      ....       0.000 sec  (  0.0%)
Orbital Orthonormalization  ....       0.000 sec  (  0.0%)
DIIS solution               ....       0.042 sec  (  0.2%)
SOSCF solution              ....       0.033 sec  (  0.2%)
Grid generation             ....       1.177 sec  (  5.8%)

Maximum memory used throughout the entire SCF-calculation: 58.8 MB


           ************************************************************
           *        Program running with 16 parallel MPI-processes    *
           *              working on a common directory               *
           ************************************************************
------------------------------------------------------------------------------
                        ORCA TD-DFT/TDA CALCULATION
------------------------------------------------------------------------------

Input orbitals are from        ... xanthine_spectra_tda.gbw
CI-vector output               ... xanthine_spectra_tda.cis
Tamm-Dancoff approximation     ... operative
CIS-Integral strategy          ... AO-integrals
Integral handling              ... AO integral Direct
Max. core memory used          ... 512 MB
Reference state                ... RHF
Generation of triplets         ... off
Follow IRoot                   ... off
Number of operators            ... 1
Orbital ranges used for CIS calculation:
 Operator 0:  Orbitals  11... 38  to  39...173
XAS localization array:
 Operator 0:  Orbitals  -1... -1

-------------------
XC-INTEGRATION GRID
-------------------

General Integration Accuracy     IntAcc      ... 3.467
Radial Grid Type                 RadialGrid  ... OptM3 with GC (2021)
Angular Grid (max. ang.)         AngularGrid ... 1 (Lebedev-50)
Angular grid pruning method      GridPruning ... 4 (adaptive)
Weight generation scheme         WeightScheme... Becke
Basis function cutoff            BFCut       ... 1.0000e-10
Integration weight cutoff        WCut        ... 1.0000e-14
Angular grids for H and He will be reduced by one unit
Partially contracted basis set               ... off
Rotationally invariant grid construction     ... off

Total number of grid points                  ...    12052
Total number of batches                      ...      197
Average number of points per batch           ...       61
Average number of grid points per atom       ...      803

---------------------
COSX-INTEGRATION GRID
---------------------

General Integration Accuracy     IntAcc      ... 3.067
Radial Grid Type                 RadialGrid  ... OptM3 with GC (2021)
Angular Grid (max. ang.)         AngularGrid ... 1 (Lebedev-50)
Angular grid pruning method      GridPruning ... 4 (adaptive)
Weight generation scheme         WeightScheme... Becke
Basis function cutoff            BFCut       ... 1.0000e-10
Integration weight cutoff        WCut        ... 1.0000e-14
Angular grids for H and He will be reduced by one unit
Partially contracted basis set               ... on
Rotationally invariant grid construction     ... off

Total number of grid points                  ...     5412
Total number of batches                      ...       93
Average number of points per batch           ...       58
Average number of grid points per atom       ...      361

---------------
TD-DFT XC SETUP
---------------

DFT calculation                         ... on
Name of the grid file                   ... xanthine_spectra_tda.grid_cis.tmp
Exchange functional (TD-DFT)            ... WB88
Correlation functional (TD-DFT)         ... LYP
 LDA part of GGA corr.  LDAOpt (TD-DFT) ... VWN-5
Hybrid DFT                              ... on
   Exchange mixing (TD-DFT)             ...  0.190
   GGA exch. scaling (TD-DFT)           ...  0.350
   GGA corr. scaling (TD-DFT)           ...  0.810
Range-Separated Exchange                ... on
   Range Range separation parameter mu  .... 0.330
   Max. amount of RS exchange (TD-DFT)  ...  0.460

Building densities             ... done
Calculating rho(r) on the grid ... done
Building xc-kernel on the grid ... done
                    *** TD-DFT CALCULATION INITIALIZED ***

------------------------
DAVIDSON-DIAGONALIZATION
------------------------

Dimension of the eigenvalue problem            ...   3780
Number of roots to be determined               ...     10
Maximum size of the expansion space            ...    100
Maximum number of iterations                   ...    100
Convergence tolerance for the residual         ...    1.000e-06
Convergence tolerance for the energies         ...    1.000e-06
Orthogonality tolerance                        ...    1.000e-14
Level Shift                                    ...    0.000e+00
Constructing the preconditioner                ... o.k.
Building the initial guess                     ... o.k.
Number of trial vectors determined             ...    100


                       ****Iteration    0****

   Memory handling for direct AO based CIS:
   Memory per vector needed      ...     1 MB
   Memory needed                 ...    51 MB
   Memory available              ...   512 MB
   Number of vectors per batch   ...   295
   Number of batches             ...     1
   Time for densities:            0.013
   Time for RI-J (Direct):        0.444
   Time for K (COSX):             1.712
   Time for XC-Integration:       0.457
   Time for Sigma-Completion:     0.015
   Size of expansion space: 30
   Lowest Energy          :     0.202880011112
   Maximum Energy change  :     0.290151619588 (vector 9)
   Maximum residual norm  :     0.022554321965

                       ****Iteration    1****
   Time for densities:            0.004
   Time for RI-J (Direct):        0.247
   Time for K (COSX):             0.894
   Time for XC-Integration:       0.252
   Time for Sigma-Completion:     0.005
   Size of expansion space: 40
   Lowest Energy          :     0.196321795289
   Maximum Energy change  :     0.019571231749 (vector 1)
   Maximum residual norm  :     0.001292779510

                       ****Iteration    2****
   Time for densities:            0.005
   Time for RI-J (Direct):        0.234
   Time for K (COSX):             0.919
   Time for XC-Integration:       0.251
   Time for Sigma-Completion:     0.008
   Size of expansion space: 50
   Lowest Energy          :     0.196074767028
   Maximum Energy change  :     0.001563981378 (vector 7)
   Maximum residual norm  :     0.000134852387

                       ****Iteration    3****
   Time for densities:            0.004
   Time for RI-J (Direct):        0.239
   Time for K (COSX):             0.887
   Time for XC-Integration:       0.256
   Time for Sigma-Completion:     0.006
   Size of expansion space: 60
   Lowest Energy          :     0.196068034606
   Maximum Energy change  :     0.000198902241 (vector 7)
   Maximum residual norm  :     0.000014905627

                       ****Iteration    4****
   Time for densities:            0.005
   Time for RI-J (Direct):        0.228
   Time for K (COSX):             0.901
   Time for XC-Integration:       0.250
   Time for Sigma-Completion:     0.009
   Size of expansion space: 70
   Lowest Energy          :     0.196067821428
   Maximum Energy change  :     0.000024257823 (vector 7)
   Maximum residual norm  :     0.000002618872

                       ****Iteration    5****
   Time for densities:            0.004
   Time for RI-J (Direct):        0.240
   Time for K (COSX):             0.904
   Time for XC-Integration:       0.255
   Time for Sigma-Completion:     0.022
   Size of expansion space: 80
   Lowest Energy          :     0.196067815220
   Maximum Energy change  :     0.000004047595 (vector 7)
   Maximum residual norm  :     0.000001291198

                       ****Iteration    6****
   Time for densities:            0.004
   Time for RI-J (Direct):        0.229
   Time for K (COSX):             0.893
   Time for XC-Integration:       0.260
   Time for Sigma-Completion:     0.005
   Size of expansion space: 90
   Lowest Energy          :     0.196067815048
   Maximum Energy change  :     0.004822169212 (vector 9)
   Maximum residual norm  :     0.000256313785

                       ****Iteration    7****
   Time for densities:            0.005
   Time for RI-J (Direct):        0.232
   Time for K (COSX):             0.904
   Time for XC-Integration:       0.257
   Time for Sigma-Completion:     0.005
   Size of expansion space: 100
   Lowest Energy          :     0.196067815045
   Maximum Energy change  :     0.000405133464 (vector 9)
   Maximum residual norm  :     0.000018295166
   Rebuilding the expansion space

                       ****Iteration    8****
   Time for densities:            0.008
   Time for RI-J (Direct):        0.359
   Time for K (COSX):             1.418
   Time for XC-Integration:       0.488
   Time for Sigma-Completion:     0.029
   Size of expansion space: 20
   Lowest Energy          :     0.196067865802
   Maximum Energy change  :     0.000025782228 (vector 9)
   Maximum residual norm  :     0.000001910729

                       ****Iteration    9****
   Time for densities:            0.004
   Time for RI-J (Direct):        0.238
   Time for K (COSX):             0.899
   Time for XC-Integration:       0.262
   Time for Sigma-Completion:     0.009
   Size of expansion space: 30
   Lowest Energy          :     0.196067865799
   Maximum Energy change  :     0.000002712652 (vector 9)
   Maximum residual norm  :     0.000000233627

      *** CONVERGENCE OF RESIDUAL NORM REACHED ***

Storing the converged CI vectors               ... xanthine_spectra_tda.cis1

                 *** DAVIDSON DONE ***

Total time for solving the CIS problem:    16.447sec

------------------------------------
TD-DFT/TDA EXCITED STATES (SINGLETS)
------------------------------------

the weight of the individual excitations are printed if larger than 1.0e-02

STATE  1:  E=   0.196068 au      5.335 eV    43031.9 cm**-1 <S**2> =   0.000000
    33a ->  39a  :     0.017145 (c=  0.13093760)
    33a ->  41a  :     0.011639 (c=  0.10788494)
    34a ->  39a  :     0.127034 (c= -0.35641850)
    37a ->  39a  :     0.740729 (c=  0.86065586)
    37a ->  41a  :     0.059260 (c=  0.24343344)
    37a ->  46a  :     0.014419 (c=  0.12008006)

STATE  2:  E=   0.201829 au      5.492 eV    44296.4 cm**-1 <S**2> =   0.000000
    35a ->  40a  :     0.020424 (c= -0.14291229)
    36a ->  39a  :     0.012464 (c= -0.11164077)
    38a ->  39a  :     0.905719 (c= -0.95169267)

STATE  3:  E=   0.241823 au      6.580 eV    53074.0 cm**-1 <S**2> =   0.000000
    35a ->  39a  :     0.370723 (c= -0.60887031)
    36a ->  39a  :     0.018412 (c= -0.13568947)
    36a ->  40a  :     0.011879 (c= -0.10899288)
    38a ->  40a  :     0.263648 (c=  0.51346625)
    38a ->  41a  :     0.293355 (c= -0.54162285)

STATE  4:  E=   0.242044 au      6.586 eV    53122.5 cm**-1 <S**2> =   0.000000
    33a ->  39a  :     0.072223 (c=  0.26874423)
    33a ->  40a  :     0.011573 (c= -0.10757755)
    34a ->  39a  :     0.055043 (c=  0.23461227)
    34a ->  40a  :     0.321710 (c=  0.56719456)
    34a ->  46a  :     0.024407 (c= -0.15622652)
    37a ->  40a  :     0.463788 (c=  0.68101975)
    37a ->  41a  :     0.026255 (c=  0.16203531)

STATE  5:  E=   0.245910 au      6.692 eV    53971.0 cm**-1 <S**2> =   0.000000
    33a ->  39a  :     0.680080 (c=  0.82466985)
    33a ->  41a  :     0.033162 (c= -0.18210325)
    34a ->  39a  :     0.077959 (c=  0.27921120)
    34a ->  40a  :     0.075088 (c= -0.27402155)
    34a ->  41a  :     0.032618 (c= -0.18060409)
    37a ->  40a  :     0.049478 (c= -0.22243550)
    37a ->  41a  :     0.026360 (c=  0.16235872)
    37a ->  46a  :     0.012888 (c=  0.11352525)

STATE  6:  E=   0.261406 au      7.113 eV    57372.1 cm**-1 <S**2> =   0.000000
    32a ->  42a  :     0.018196 (c=  0.13489424)
    38a ->  42a  :     0.951241 (c=  0.97531587)

STATE  7:  E=   0.263113 au      7.160 eV    57746.6 cm**-1 <S**2> =   0.000000
    35a ->  39a  :     0.012394 (c=  0.11132666)
    36a ->  39a  :     0.690551 (c= -0.83099419)
    38a ->  40a  :     0.150120 (c= -0.38745365)
    38a ->  41a  :     0.081695 (c= -0.28582324)

STATE  8:  E=   0.265212 au      7.217 eV    58207.3 cm**-1 <S**2> =   0.000000
    35a ->  39a  :     0.148599 (c=  0.38548527)
    36a ->  39a  :     0.142931 (c= -0.37806224)
    37a ->  42a  :     0.011499 (c= -0.10723230)
    38a ->  39a  :     0.010060 (c=  0.10029879)
    38a ->  40a  :     0.502976 (c=  0.70920777)
    38a ->  41a  :     0.120745 (c=  0.34748428)

STATE  9:  E=   0.269617 au      7.337 eV    59174.1 cm**-1 <S**2> =   0.000000
    33a ->  39a  :     0.061307 (c=  0.24760284)
    34a ->  39a  :     0.658377 (c= -0.81140433)
    34a ->  41a  :     0.040700 (c= -0.20174270)
    37a ->  39a  :     0.192231 (c= -0.43844179)
    37a ->  40a  :     0.027431 (c=  0.16562339)

STATE 10:  E=   0.273786 au      7.450 eV    60089.1 cm**-1 <S**2> =   0.000000
    32a ->  40a  :     0.015030 (c= -0.12259739)
    35a ->  39a  :     0.410506 (c=  0.64070746)
    36a ->  39a  :     0.060322 (c=  0.24560506)
    38a ->  40a  :     0.011033 (c=  0.10503733)
    38a ->  41a  :     0.441380 (c= -0.66436434)


------------------------------------------
NATURAL TRANSITION ORBITALS FOR STATE    1
------------------------------------------

Making the (pseudo)densities                       ... done
Solving eigenvalue problem for the occupied space  ... done
Solving eigenvalue problem for the virtual space   ... done
Natural Transition Orbitals were saved in xanthine_spectra_tda.s1.nto
Threshold for printing occupation numbers 0.001000

 E=   0.196068 au      5.335 eV    43031.9 cm**-1
    38a ->  39a  : n=  0.98999097
    37a ->  40a  : n=  0.00827501
    36a ->  41a  : n=  0.00100134


------------------------------------------
NATURAL TRANSITION ORBITALS FOR STATE    2
------------------------------------------

Making the (pseudo)densities                       ... done
Solving eigenvalue problem for the occupied space  ... done
Solving eigenvalue problem for the virtual space   ... done
Natural Transition Orbitals were saved in xanthine_spectra_tda.s2.nto
Threshold for printing occupation numbers 0.001000

 E=   0.201829 au      5.492 eV    44296.4 cm**-1
    38a ->  39a  : n=  0.92888998
    37a ->  40a  : n=  0.03862210
    36a ->  41a  : n=  0.01140760
    35a ->  42a  : n=  0.00680038
    34a ->  43a  : n=  0.00400491
    33a ->  44a  : n=  0.00309620
    32a ->  45a  : n=  0.00166362
    31a ->  46a  : n=  0.00113141


------------------------------------------
NATURAL TRANSITION ORBITALS FOR STATE    3
------------------------------------------

Making the (pseudo)densities                       ... done
Solving eigenvalue problem for the occupied space  ... done
Solving eigenvalue problem for the virtual space   ... done
Natural Transition Orbitals were saved in xanthine_spectra_tda.s3.nto
Threshold for printing occupation numbers 0.001000

 E=   0.241823 au      6.580 eV    53074.0 cm**-1
    38a ->  39a  : n=  0.57943550
    37a ->  40a  : n=  0.39660480
    36a ->  41a  : n=  0.01532105
    35a ->  42a  : n=  0.00208154
    34a ->  43a  : n=  0.00168389
    33a ->  44a  : n=  0.00107212


------------------------------------------
NATURAL TRANSITION ORBITALS FOR STATE    4
------------------------------------------

Making the (pseudo)densities                       ... done
Solving eigenvalue problem for the occupied space  ... done
Solving eigenvalue problem for the virtual space   ... done
Natural Transition Orbitals were saved in xanthine_spectra_tda.s4.nto
Threshold for printing occupation numbers 0.001000

 E=   0.242044 au      6.586 eV    53122.5 cm**-1
    38a ->  39a  : n=  0.86268852
    37a ->  40a  : n=  0.13177196
    36a ->  41a  : n=  0.00326645
    35a ->  42a  : n=  0.00181765


------------------------------------------
NATURAL TRANSITION ORBITALS FOR STATE    5
------------------------------------------

Making the (pseudo)densities                       ... done
Solving eigenvalue problem for the occupied space  ... done
Solving eigenvalue problem for the virtual space   ... done
Natural Transition Orbitals were saved in xanthine_spectra_tda.s5.nto
Threshold for printing occupation numbers 0.001000

 E=   0.245910 au      6.692 eV    53971.0 cm**-1
    38a ->  39a  : n=  0.82550165
    37a ->  40a  : n=  0.13373586
    36a ->  41a  : n=  0.03853653
    35a ->  42a  : n=  0.00117884


------------------------------------------
NATURAL TRANSITION ORBITALS FOR STATE    6
------------------------------------------

Making the (pseudo)densities                       ... done
Solving eigenvalue problem for the occupied space  ... done
Solving eigenvalue problem for the virtual space   ... done
Natural Transition Orbitals were saved in xanthine_spectra_tda.s6.nto
Threshold for printing occupation numbers 0.001000

 E=   0.261406 au      7.113 eV    57372.1 cm**-1
    38a ->  39a  : n=  0.99586283
    37a ->  40a  : n=  0.00183812


------------------------------------------
NATURAL TRANSITION ORBITALS FOR STATE    7
------------------------------------------

Making the (pseudo)densities                       ... done
Solving eigenvalue problem for the occupied space  ... done
Solving eigenvalue problem for the virtual space   ... done
Natural Transition Orbitals were saved in xanthine_spectra_tda.s7.nto
Threshold for printing occupation numbers 0.001000

 E=   0.263113 au      7.160 eV    57746.6 cm**-1
    38a ->  39a  : n=  0.72108927
    37a ->  40a  : n=  0.23063366
    36a ->  41a  : n=  0.02487121
    35a ->  42a  : n=  0.00717360
    34a ->  43a  : n=  0.00528980
    33a ->  44a  : n=  0.00277826
    32a ->  45a  : n=  0.00228248
    31a ->  46a  : n=  0.00122521


------------------------------------------
NATURAL TRANSITION ORBITALS FOR STATE    8
------------------------------------------

Making the (pseudo)densities                       ... done
Solving eigenvalue problem for the occupied space  ... done
Solving eigenvalue problem for the virtual space   ... done
Natural Transition Orbitals were saved in xanthine_spectra_tda.s8.nto
Threshold for printing occupation numbers 0.001000

 E=   0.265212 au      7.217 eV    58207.3 cm**-1
    38a ->  39a  : n=  0.65368276
    37a ->  40a  : n=  0.29546782
    36a ->  41a  : n=  0.02464859
    35a ->  42a  : n=  0.00926675
    34a ->  43a  : n=  0.00353382
    33a ->  44a  : n=  0.00282298
    32a ->  45a  : n=  0.00203107
    31a ->  46a  : n=  0.00182137
    30a ->  47a  : n=  0.00126057
    29a ->  48a  : n=  0.00111441


------------------------------------------
NATURAL TRANSITION ORBITALS FOR STATE    9
------------------------------------------

Making the (pseudo)densities                       ... done
Solving eigenvalue problem for the occupied space  ... done
Solving eigenvalue problem for the virtual space   ... done
Natural Transition Orbitals were saved in xanthine_spectra_tda.s9.nto
Threshold for printing occupation numbers 0.001000

 E=   0.269617 au      7.337 eV    59174.1 cm**-1
    38a ->  39a  : n=  0.95064393
    37a ->  40a  : n=  0.04159441
    36a ->  41a  : n=  0.00487720
    35a ->  42a  : n=  0.00165776


------------------------------------------
NATURAL TRANSITION ORBITALS FOR STATE   10
------------------------------------------

Making the (pseudo)densities                       ... done
Solving eigenvalue problem for the occupied space  ... done
Solving eigenvalue problem for the virtual space   ... done
Natural Transition Orbitals were saved in xanthine_spectra_tda.s10.nto
Threshold for printing occupation numbers 0.001000

 E=   0.273786 au      7.450 eV    60089.1 cm**-1
    38a ->  39a  : n=  0.48534603
    37a ->  40a  : n=  0.45572725
    36a ->  41a  : n=  0.01754919
    35a ->  42a  : n=  0.01237692
    34a ->  43a  : n=  0.00954192
    33a ->  44a  : n=  0.00567857
    32a ->  45a  : n=  0.00381025
    31a ->  46a  : n=  0.00234973
    30a ->  47a  : n=  0.00219801
    29a ->  48a  : n=  0.00154870


-----------------------------
TD-DFT/TDA-EXCITATION SPECTRA
-----------------------------

Center of mass = ( -3.6852, -2.3901, -0.1228)
Calculating the Dipole integrals                  ... done
Transforming integrals                            ... done
Calculating the Linear Momentum integrals         ... done
Transforming integrals                            ... done
Calculating angular momentum integrals            ... done
Transforming integrals                            ... done

-----------------------------------------------------------------------------
         ABSORPTION SPECTRUM VIA TRANSITION ELECTRIC DIPOLE MOMENTS
-----------------------------------------------------------------------------
State   Energy    Wavelength  fosc         T2        TX        TY        TZ  
        (cm-1)      (nm)                 (au**2)    (au)      (au)      (au) 
-----------------------------------------------------------------------------
   1   43031.9    232.4   0.000405771   0.00310   0.00128  -0.00673  -0.05529
   2   44296.4    225.8   0.212524789   1.57949  -0.63259   1.08273  -0.08378
   3   53074.0    188.4   0.003355191   0.02081   0.13020  -0.06172   0.00704
   4   53122.5    188.2   0.000457030   0.00283  -0.00679   0.00759   0.05224
   5   53971.0    185.3   0.002305318   0.01406   0.00098   0.00984   0.11817
   6   57372.1    174.3   0.000785665   0.00451  -0.00292   0.00503   0.06689
   7   57746.6    173.2   0.099143697   0.56522  -0.37937  -0.64685   0.05367
   8   58207.3    171.8   0.351898236   1.99029   1.34543  -0.42356   0.02654
   9   59174.1    169.0   0.000085339   0.00047   0.01080  -0.00265  -0.01874
  10   60089.1    166.4   0.443227500   2.42832   1.51307   0.37088  -0.03715

-----------------------------------------------------------------------------
         ABSORPTION SPECTRUM VIA TRANSITION VELOCITY DIPOLE MOMENTS
-----------------------------------------------------------------------------
State   Energy    Wavelength   fosc        P2         PX        PY        PZ  
        (cm-1)      (nm)                 (au**2)     (au)      (au)      (au) 
-----------------------------------------------------------------------------
   1   43031.9    232.4   0.000725391   0.00021  -0.00010  -0.00127  -0.01455
   2   44296.4    225.8   0.011991128   0.00363   0.03096   0.05151  -0.00436
   3   53074.0    188.4   0.001522086   0.00055  -0.01006  -0.02115   0.00191
   4   53122.5    188.2   0.000029596   0.00001   0.00060   0.00156   0.00282
   5   53971.0    185.3   0.000003751   0.00000  -0.00000   0.00007   0.00117
   6   57372.1    174.3   0.008842681   0.00347   0.00005  -0.00473  -0.05869
   7   57746.6    173.2   0.002857893   0.00113   0.01948   0.02728  -0.00215
   8   58207.3    171.8   0.054313145   0.02161  -0.14179   0.03867  -0.00262
   9   59174.1    169.0   0.000058634   0.00002  -0.00096   0.00058   0.00474
  10   60089.1    166.4   0.037511080   0.01541  -0.12382   0.00857   0.00001

-------------------------------------------------------------------
                             CD SPECTRUM
-------------------------------------------------------------------
State  Energy     Wavelength     R         MX        MY        MZ   
       (cm-1)       (nm)     (1e40*cgs)   (au)      (au)      (au)  
-------------------------------------------------------------------
   1   43031.9    232.4     -0.37150   0.02347   0.37193  -0.03045
   2   44296.4    225.8      0.36480   0.00262   0.04044   0.49358
   3   53074.0    188.4      1.15700   0.02021   0.02367   0.18226
   4   53122.5    188.2     -1.05573   0.29817   0.14160  -0.02471
   5   53971.0    185.3     -0.01040  -0.30766  -0.04191   0.00585
   6   57372.1    174.3     -0.14751   0.11033  -0.24946   0.01889
   7   57746.6    173.2     -0.20053   0.00026   0.00616   0.06814
   8   58207.3    171.8     -0.23951   0.00133   0.02729   0.34887
   9   59174.1    169.0      0.27999   0.06404   0.04988  -0.00185
  10   60089.1    166.4     -0.44449   0.00051   0.01689   0.21491

-------------------------------------------------------------------
         CD SPECTRUM VIA TRANSITION VELOCITY DIPOLE MOMENTS        
-------------------------------------------------------------------
State  Energy     Wavelength     R         MX        MY        MZ   
       (cm-1)       (nm)     (1e40*cgs)   (au)      (au)      (au)  
-------------------------------------------------------------------
   1   43031.9    232.4     -0.07666   0.02347   0.37193  -0.03045
   2   44296.4    225.8      0.02944   0.00262   0.04044   0.49358
   3   53074.0    188.4     -0.69343   0.02021   0.02367   0.18226
   4   53122.5    188.2      0.64218   0.29817   0.14160  -0.02471
   5   53971.0    185.3      0.00787  -0.30766  -0.04191   0.00585
   6   57372.1    174.3      0.14019   0.11033  -0.24946   0.01889
   7   57746.6    173.2      0.04744   0.00026   0.00616   0.06814
   8   58207.3    171.8     -0.08739   0.00133   0.02729   0.34887
   9   59174.1    169.0     -0.07240   0.06404   0.04988  -0.00185
  10   60089.1    166.4      0.14396   0.00051   0.01689   0.21491

Total run time:       17.467 sec

           *** ORCA-CIS/TD-DFT FINISHED WITHOUT ERROR ***

Maximum memory used throughout the entire CIS-calculation: 70.8 MB

-----------------------
CIS/TD-DFT TOTAL ENERGY
-----------------------

    E(SCF)  =   -562.248235824 Eh
    DE(CIS) =      0.196067866 Eh (Root  1)
    ----------------------------- ---------
    E(tot)  =   -562.052167959 Eh


-------------------------   --------------------
FINAL SINGLE POINT ENERGY      -562.052167958523
-------------------------   --------------------


                            ***************************************
                            *     ORCA property calculations      *
                            ***************************************

                                    ---------------------
                                    Active property flags
                                    ---------------------
   (+) Dipole Moment


------------------------------------------------------------------------------
                       ORCA ELECTRIC PROPERTIES CALCULATION
------------------------------------------------------------------------------

Dipole Moment Calculation                       ... on
Quadrupole Moment Calculation                   ... off
Polarizability Calculation                      ... off
GBWName                                         ... xanthine_spectra_tda.gbw
Electron density                                ... xanthine_spectra_tda.scfp
The origin for moment calculation is the CENTER OF MASS  = (-3.685159, -2.390070 -0.122830)

-------------
DIPOLE MOMENT
-------------
                                X             Y             Z
Electronic contribution:     -1.36199       0.31487      -0.01962
Nuclear contribution   :      2.97401      -0.25764       0.00604
                        -----------------------------------------
Total Dipole Moment    :      1.61202       0.05723      -0.01358
                        -----------------------------------------
Magnitude (a.u.)       :      1.61310
Magnitude (Debye)      :      4.10016



--------------------
Rotational spectrum 
--------------------
 
Rotational constants in cm-1:     0.064433     0.037415     0.023670 
Rotational constants in MHz :  1931.646973  1121.662332   709.609077 

 Dipole components along the rotational axes: 
x,y,z [a.u.] :     1.613053    -0.011816    -0.000260 
x,y,z [Debye]:     4.100054    -0.030034    -0.000662 

 

Timings for individual modules:

Sum of individual times         ...       39.724 sec (=   0.662 min)
GTO integral calculation        ...        0.956 sec (=   0.016 min)   2.4 %
SCF iterations                  ...       20.856 sec (=   0.348 min)  52.5 %
CIS module                      ...       17.912 sec (=   0.299 min)  45.1 %
                             ****ORCA TERMINATED NORMALLY****
TOTAL RUN TIME: 0 days 0 hours 0 minutes 40 seconds 316 msec
Filesystem                                  Size  Used Avail Use% Mounted on
devtmpfs                                     31G     0   31G   0% /dev
tmpfs                                        31G     0   31G   0% /dev/shm
tmpfs                                        31G  1.7G   30G   6% /run
tmpfs                                        31G     0   31G   0% /sys/fs/cgroup
/dev/sda2                                    49G   15G   33G  31% /
/dev/sda3                                    20G  862M   18G   5% /var
/dev/sda5                                   4.9G   96K  4.6G   1% /tmp
/dev/sda1                                   4.9G  268M  4.4G   6% /boot
/dev/sda7                                    50M  4.0K   50M   1% /boot/efi
/dev/sda8                                   834G  722G   70G  92% /temporal
192.168.5.2@o2ib:192.168.5.3@o2ib:/LUSTREB  923T  351T  526T  41% /lustre
